/*--------------------------------*- C++ -*----------------------------------*\
| =========                 |                                                 |
| \\      /  F ield         | OpenFOAM: The Open Source CFD Toolbox           |
|  \\    /   O peration     | Version:  v1906                                 |
|   \\  /    A nd           | Web:      www.OpenFOAM.com                      |
|    \\/     M anipulation  |                                                 |
\*---------------------------------------------------------------------------*/
FoamFile
{
    version     2.0;
    format      ascii;
    class       surfaceScalarField;
    location    "30";
    object      phi;
}
// * * * * * * * * * * * * * * * * * * * * * * * * * * * * * * * * * * * * * //

dimensions      [1 0 -1 0 0 0 0];
oriented        oriented;


internalField   nonuniform List<scalar> 
104699
(
0.0150771
0.00769778
-0.00582314
0.0214178
0.00710949
-0.00494086
0.0300651
0.00400379
-0.00415679
0.0089502
0.000543418
-0.00117104
0.00956959
0.00896055
0.00961983
0.000665903
0.000618555
0.000775164
0.0100059
0.00116819
-0.000111392
0.0132164
0.00129322
-0.00067203
-0.0117276
-0.0146525
0.0160969
0.0013624
-0.000691734
-0.0177312
0.0194106
0.00144146
-0.000997195
-0.0213585
0.0235028
0.00149883
-0.00151498
0.127361
0.0027285
-0.0295419
0.00495435
0.00242614
0.00382885
-0.0259521
-0.0263912
-0.0253493
-0.0256332
0.0185915
-0.0272279
0.0144871
0.00827636
-0.00662844
0.0204504
0.00736268
-0.00621654
0.00609713
0.00431716
-0.00388622
0.00591464
0.00610454
0.00590692
0.00699614
5.43629e-05
-0.000409996
0.0110655
-0.00176035
-0.000386287
-8.24631e-05
-0.00883641
0.014594
-0.00062191
-0.0130622
2.08683e-05
-0.00016513
-0.000151934
9.62223e-06
-0.000623322
-0.0159567
0.0173918
-0.000888406
0.000173526
-2.20814e-05
-7.78496e-06
0.000164893
-0.000855217
-0.0189954
0.020682
-0.00125162
0.000262882
2.61296e-05
3.79316e-05
0.000257125
-0.00101907
-0.0225779
0.0240746
-0.00172801
0.000633558
0.000228034
0.000230984
0.000613872
-0.00147518
-0.025017
0.0238264
-0.0019617
0.00146792
0.00141041
0.00150162
0.00150089
0.00466315
-0.0339582
-0.0247922
-0.0230358
-0.0241267
-0.022025
0.00428444
0.00385591
0.00382318
0.0142275
0.00969605
-0.00720858
0.0193248
0.00899631
-0.00673097
0.0053367
0.0085284
-0.00607054
0.00517267
0.00543936
0.00523534
0.00545399
0.000244938
-0.000395473
3.32394e-05
0.000521914
-0.00133358
0.00129876
-0.000511736
2.46464e-05
9.86101e-05
-0.000470224
0.000513991
-0.000136795
-5.58208e-06
1.79964e-05
-0.000534357
0.000533862
-8.84842e-06
-8.65523e-06
1.75279e-05
-0.000627237
0.000630519
-8.87017e-06
-1.19412e-05
-6.38175e-06
-0.000777171
0.000794621
4.91909e-06
-1.59887e-05
-0.000724786
-0.00231912
0.00313681
0.00269407
-0.000593559
-0.000730463
-0.000731121
-0.000731831
-0.0159391
0.0212072
0.00408527
-0.0046902
0.0114756
0.0134098
-0.0067537
0.0165319
0.00263564
-0.00660956
0.00261059
0.00262066
0.00268248
0.00460162
0.00297088
-0.00552037
0.00439577
0.0047016
0.00448342
0.003117
0.00305736
0.0032529
-0.000958799
0.00405914
0.00184018
-0.000338944
6.47166e-05
-0.000804564
0.00069237
5.91175e-05
-1.1653e-05
-0.00167317
-0.000299923
0.00149759
0.00134599
-0.000132927
-0.000301174
-0.000225314
-0.000211075
-0.0129335
-0.00345763
0.0191564
0.00246198
-0.0052273
0.00309309
0.00382009
-0.0065468
0.00328381
0.00317961
0.00345012
0.00389993
0.00380159
0.00385263
0.00335432
0.00289664
-0.000522283
-0.00373792
0.00404468
0.00307449
-0.000410425
-0.00292362
-0.00384522
0.00304533
0.00399337
-0.000269922
-0.000515264
-0.000452038
0.000342834
0.000634074
-9.6245e-06
-0.000813432
-0.000300003
0.00132025
0.000691881
-0.000175012
-0.000299588
-0.000214608
-0.000209494
-0.0121207
-0.00179861
0.0182688
0.00122341
-0.00557291
0.00243943
0.00393164
-0.000444666
0.00361759
-0.000440356
-0.00309382
-0.00286832
0.000717851
0.00067436
0.00067014
0.000722488
-0.00457379
0.00476816
-0.000357134
0.000672124
0.000686662
0.00111949
0.00106792
-0.0033835
-0.00376845
-0.00518101
0.00252759
0.00664638
-0.000224575
-0.000996676
-0.000331491
0.00023857
0.00109672
-7.13362e-06
-0.000437479
-0.000286727
0.00128012
0.000371346
-0.000231003
-0.000286085
-0.000206519
-0.000203657
-0.0118361
-0.000853434
0.0178644
0.000575519
-0.00575032
0.00186696
0.00511839
-0.000487175
-0.0043803
-0.000775275
-0.00029908
0.0001728
0.000954617
-5.3073e-05
-0.000637621
-0.00792695
0.0017625
0.00839544
-1.33869e-05
-0.000515342
-0.000594988
-0.000469697
-0.0014049
-0.000157591
0.000121738
0.00143459
6.14045e-06
-0.00023058
-0.000276879
0.00126721
0.000192685
-0.000273206
-0.000276075
-0.000202495
-0.000200657
-0.0117193
-0.00038852
0.0176942
0.00025209
-0.00583845
-0.00627444
0.00141212
0.00758159
-0.000595091
-0.00142009
-6.67502e-05
6.00034e-06
0.00151951
-3.86691e-05
-0.00117358
-0.00851699
0.0035948
0.00869799
-6.52035e-05
-0.00116427
-0.000718528
-0.000654249
-0.00159688
-0.000257995
0.000196249
0.00162258
3.60259e-05
-0.000111175
-0.000269756
0.00126532
8.87501e-05
-0.000302323
-0.000269154
-0.000201398
-0.000200268
-0.0116854
-0.000155238
0.0176357
8.42091e-05
-0.00587921
-0.00893743
0.00144876
0.0102852
-0.000648216
-0.00184645
-9.98406e-05
5.04366e-05
0.00193656
-4.07201e-05
-0.00102768
-0.00913623
0.00289956
0.00999754
-0.000348119
-0.000962767
-0.000751033
-0.000671291
-0.0018403
-0.000134625
0.000108367
0.00186056
5.99059e-06
-3.72806e-05
-0.000264765
0.00127114
2.1581e-05
-0.000323206
-0.000264054
-0.000202003
-0.000201411
-0.0117052
-3.47427e-05
0.0176339
3.91113e-06
-0.0058979
-0.0115918
0.00188857
0.0125871
-0.000696747
-0.00235736
-0.000204323
0.000138549
0.00248235
-5.92118e-05
-0.000454297
-0.0111388
0.000758063
0.0121455
-0.000807484
-0.000103422
-0.00036685
-3.279e-05
-0.00206251
1.88307e-05
4.07498e-07
0.00207719
-3.39214e-05
2.48254e-05
-0.00026296
0.00126785
-3.97076e-05
-0.00032416
-0.000263618
-0.000201339
-0.000200887
-0.0116865
2.60756e-05
0.0176302
-7.29246e-05
-0.00589684
-0.0130441
0.00313951
0.0127788
-0.000735395
-0.00235453
0.0111338
-0.000779208
-0.00261542
-0.00235577
-0.00262265
0.00106137
0.000921111
0.000950638
0.00103455
-0.00437394
-0.00123502
-0.000244942
-4.49672e-05
0.00159737
-7.2458e-05
0.00139063
-0.0126956
-0.000835911
0.0129251
-0.000784285
-0.00225312
0.000120484
-7.86753e-05
0.00226193
-5.06161e-05
8.90702e-05
-0.000266812
0.00126078
-0.00010746
-0.00030895
-0.000267515
-0.000199508
-0.000199603
-0.0116816
0.000138515
0.0176546
-0.000224697
-0.00588679
0.00132311
0.065689
-0.0120582
-0.0133642
-0.0135047
-0.0131034
-0.0132249
0.0025554
0.00140279
0.00264395
-0.0118473
0.00138652
0.0127693
-0.000985455
-0.0115238
-0.00112378
0.000409553
0.0131975
-0.000959485
-0.0132139
0.000233117
0.0139278
-0.000884656
-6.2381e-05
-0.00238146
3.33994e-05
-2.32576e-05
0.00242991
-5.85996e-05
0.000178917
-0.000272414
0.0012624
-0.00020595
-0.000290118
-0.000273149
-0.000199436
-0.000200245
-0.0117355
0.00033984
0.0177484
-0.000489757
-0.00586299
0.0132765
0.0737091
-0.0129735
0.00818165
0.0745054
-0.0136208
-0.0139886
-0.0142605
-0.0136317
-0.013909
0.000257578
0.0779096
-0.0134855
0.00194596
0.000379838
0.00204366
-0.0152496
-0.0155074
-0.0149294
-0.0151832
-0.0144764
0.00070931
0.0150086
-0.000983933
-0.00264146
-0.000136623
0.000114055
0.00272368
-5.9666e-05
0.00032291
-0.000277293
0.0012912
-0.000378228
-0.000282417
-0.000275539
-0.000200551
-0.000200086
-0.0119073
0.000682954
0.0179452
-0.000905959
-0.00581484
0.00940488
0.0883145
-0.0156943
0.0106968
0.0890911
-0.0158775
0.00253557
0.0897149
-0.0152138
0.00434661
0.00262888
0.00459427
-0.0157606
0.00297292
0.0164398
-0.00111654
-0.00303347
-0.000684336
0.000623633
-5.12397e-05
0.00314542
0.000682419
-0.000292866
0.00152927
-0.000790268
-0.000330727
-0.000301225
-0.000258949
-0.000237655
-0.0121906
0.00111554
0.0181314
-0.00136001
-0.00569631
0.0120437
0.101848
-0.0172543
0.0169661
0.101717
-0.0175484
0.00519188
0.100635
-0.0170065
0.00658741
0.0047915
0.00648195
-0.0165259
0.00594934
0.0171315
-0.0013631
-0.00315109
0.0147388
-0.00251244
-0.00306788
-0.00310311
-0.00297431
0.00179862
0.00175369
0.00193721
0.00189816
-0.00731762
-0.000348762
-0.00227208
0.00216254
-0.000418635
0.00186687
-0.000316224
-0.000350663
-0.000323052
-0.000217984
-0.00176577
0.0017132
-0.000475725
0.00139989
-0.00021659
-0.000219591
-0.000217447
-0.000183483
-0.0016833
0.00172771
-0.000484878
0.00117265
-0.000180686
-0.000184548
-0.000183478
-0.000124424
-0.00197213
0.00213697
-0.000496096
0.000810007
-0.000109359
-0.00012781
-0.000117171
0.000335095
-0.0026363
0.0118435
0.00235045
-0.00513051
0.00026742
0.00034557
0.000307898
-0.00254671
-0.00261446
-0.00252202
0.00538965
-0.0473733
-0.0150555
-0.0153339
-0.0143473
-0.0145802
0.0011728
0.00112579
0.00016324
0.000603776
0.0116847
0.124684
-0.0261874
0.0172506
0.123352
-0.0272009
0.0230498
0.121021
-0.0261855
0.004251
0.111004
-0.0329994
-0.0191335
-0.0189276
-0.0186125
-0.0181718
0.00600072
0.00391542
0.00572386
-0.0159439
0.00517353
0.0173363
-0.00231485
-0.0126105
-0.00613675
0.0062276
0.0152431
-0.00272345
-0.0108578
-0.00637128
0.00640779
0.0139616
-0.00314038
-0.00946407
-0.00666358
0.00716106
0.0124392
-0.00347269
-0.00753458
-0.00794419
0.00955388
0.0100954
-0.00417051
0.0587815
0.0474171
-0.0509604
-0.00558615
-0.00416882
-0.00505758
-0.00392714
-0.0107074
-0.00796401
-0.0101252
-0.00770187
0.0336457
-0.0505456
0.0103076
-0.0295243
0.0124773
-0.0300559
0.0172997
-0.0312607
0.0221435
-0.0318975
0.0184472
-0.0406025
-0.0207015
-0.0202321
-0.0202171
-0.0195251
0.0154574
-0.0413414
-0.019367
-0.0189463
-0.0188204
-0.0183479
0.0163081
-0.0436334
-0.0180819
-0.0176926
-0.0175121
-0.017026
0.0191988
-0.0448373
-0.016439
-0.0159192
-0.0159576
-0.0152419
0.0236386
-0.0463548
-0.0139009
-0.0132013
-0.0136009
-0.0125902
0.0460691
-0.049846
-0.0508689
0.0147564
0.00800502
-0.0116365
0.0216837
0.00720623
-0.0105685
0.0292456
0.00553318
-0.00875884
0.0427313
0.000491019
-0.00668006
0.0126006
-0.000411283
-0.00484471
0.000824752
0.000283644
0.000373815
0.000263956
0.00110363
0.000592829
0.0015618
0.0131915
0.0125022
0.0131329
0.00141661
0.012941
0.00157082
-0.00121657
0.00145358
-0.0141108
0.0152274
0.00139162
-0.00184572
0.00204368
-0.0167359
0.018027
0.00144054
-0.00265116
0.00310373
-0.0196931
0.0215015
0.00157926
-0.00436393
0.109111
0.00237378
-0.0474039
0.00377024
0.00176232
0.00300013
-0.0236435
-0.0238262
-0.0230756
-0.0231806
0.0163127
-0.0429601
0.014792
0.00793256
-0.01291
0.0207545
0.0071149
-0.0120876
0.028711
0.00375476
-0.0100644
0.0091977
-0.00016015
-0.00912577
0.00877628
0.00916192
0.008258
-0.000217856
-7.96109e-06
-0.000268349
0.000821792
0.00114278
0.000605466
0.0010181
0.000776186
0.0106081
-0.00154081
-0.00105714
0.00117063
0.0139377
-0.00144454
-0.0124844
-0.000147402
3.41627e-05
3.1247e-05
-0.000146986
-0.00095035
0.00164244
-0.0152266
0.0164844
-0.0022241
-4.71581e-05
0.000137227
0.000111998
-6.95673e-05
-0.0008087
0.00233127
-0.0179235
0.0193501
-0.00320123
-4.94906e-06
0.000224765
0.000182444
-4.44864e-05
-0.000914377
0.00330154
-0.0209216
0.0221598
-0.00454456
0.000228288
0.000599558
0.000533721
0.000160329
-0.00151709
-0.0226775
0.00431492
0.0212795
0.00542711
-0.0059703
0.00431689
-0.0539022
-0.0211609
-0.0193156
-0.020809
-0.0191096
0.00392065
0.00307312
0.00308643
0.0140311
0.00874749
-0.0136158
0.0191332
0.00819839
-0.0129167
0.00519859
0.00742838
-0.0116593
0.00512128
0.00557749
0.005151
0.000708434
0.00547377
1.88017e-05
-0.00116257
5.2968e-05
0.000391192
-0.00139871
0.00143727
-0.000429513
-5.32178e-05
-2.72875e-05
0.000265633
-0.00241402
0.0026347
-6.31176e-05
-8.40579e-05
-0.000101205
-0.000102036
-7.95999e-05
4.59414e-06
-3.32882e-05
-3.21324e-07
3.62841e-05
-0.00283696
8.86261e-05
0.00292144
-0.000295648
-7.46182e-06
-2.79908e-05
-9.28119e-06
-2.84697e-05
6.16678e-05
3.83451e-05
5.94479e-05
5.73704e-05
-0.00330694
8.776e-05
0.00344166
-0.000430613
-7.13535e-06
-3.21219e-05
-8.44215e-06
-3.3861e-05
8.79647e-05
5.9454e-05
8.49117e-05
0.00010226
-0.00407454
-9.51567e-05
0.00433673
-0.000670912
2.63789e-05
-1.4426e-05
2.10623e-05
-1.73164e-05
0.000141006
0.000107889
0.000137032
0.0009461
-0.003831
-0.0018901
0.00340387
0.00240232
-0.00103119
-0.0136598
0.00766527
0.0156769
0.00401259
-0.00937813
0.0117462
0.0119196
-0.0132355
0.0166423
0.00240547
-0.0128259
0.00244936
0.00222311
0.00244056
0.00448358
0.0028771
-0.0112278
0.0043312
0.00463995
0.00444221
0.00308202
0.0027844
0.00313747
0.000625293
-0.00084608
0.00394003
0.00175526
-0.000990994
3.61183e-05
9.13779e-05
-0.000797566
0.00068524
3.45282e-05
-4.97213e-05
0.00129211
-0.000125505
-0.00173259
0.00109536
0.00143595
-0.00160084
-0.000103582
-0.000141239
-0.000119666
-0.00941609
0.0085468
-0.00342941
0.0123776
0.00250785
-0.0105867
0.00324441
0.00341871
-0.0130335
0.00338434
0.00315496
0.00350058
0.00345317
0.00333658
0.00333874
0.00094002
0.00349906
0.00265785
-0.00144711
0.000749233
-0.00380784
0.0040515
0.00301498
-0.00113084
0.000540905
-0.00288577
-0.00376814
0.00293715
0.00398388
-0.000808107
2.64377e-05
-0.000493642
-0.000429849
0.000322203
0.000617322
-4.2496e-05
0.00141252
-0.000764802
-8.75447e-05
0.000769724
0.000632606
-0.0016998
-8.35267e-05
-8.82974e-05
-9.0885e-05
-0.00782495
0.0091462
-0.00185991
0.0106949
0.00129819
-0.0114544
0.000863379
0.0024965
0.00352545
-0.00136009
0.000895224
0.0038196
-0.00136858
-0.0027722
-0.00299785
0.000621116
0.000590621
0.000631929
0.000580085
-0.0047829
0.000707278
0.00481639
-0.0010399
0.000701914
0.000687415
0.00115982
0.00114602
-0.00339609
-0.00365833
0.000461675
-0.00521287
0.00239595
0.00669138
-0.00067788
1.6356e-05
-0.000992341
-0.000295502
0.000204412
0.00109526
-2.82053e-05
0.00153237
-0.000378486
-7.25903e-05
0.000646906
0.000315017
-0.00181994
-6.96285e-05
-7.66815e-05
-7.69644e-05
-0.00707052
0.00949565
-0.000922875
0.00982781
0.000638615
-0.0119687
0.000992612
0.00187285
0.00471544
-0.00152194
-0.00394204
0.000208763
-0.000669962
-0.000333329
0.000229226
0.000839417
-0.000274132
-0.000474885
0.000300866
-0.00798823
0.000908764
0.00886138
-0.000575126
-0.000279276
-0.000466421
-0.000287125
-8.20486e-06
-0.00140192
-7.91861e-05
5.5705e-05
0.00143694
-3.35783e-06
0.0016141
-0.000186321
-6.33298e-05
0.000586311
0.000153175
-0.00190369
-6.17948e-05
-6.91242e-05
-6.93264e-05
-0.0066869
0.00969005
-0.000442175
0.00940516
0.000297406
-0.0122635
0.00113669
-0.00591493
0.00132559
0.00723205
-0.00165488
0.000129731
-0.00134744
-4.85707e-05
-6.36252e-06
0.00145572
-0.00018308
-0.000177245
0.000558713
-0.00942674
0.000263925
0.0098768
-0.000771126
-6.38093e-05
-0.000186043
-7.45154e-05
-1.92944e-05
-0.00160903
-1.32426e-05
1.2857e-05
0.00163129
-2.59645e-06
0.00166389
-8.44897e-05
-5.83581e-05
0.000555636
6.58494e-05
-0.0019544
-5.76547e-05
-6.51552e-05
-6.53217e-05
-0.00650452
0.00979088
-0.000191695
0.00921606
0.000111256
-0.012422
0.00123525
-0.00856941
0.00136671
0.00989972
-0.00178037
0.000160029
-0.00180991
-8.43044e-05
4.0877e-05
0.00190507
-0.000211764
-0.000232494
0.00088923
-0.0103865
0.000257002
0.0110546
-0.00115804
-0.000110124
-0.000231589
-8.212e-05
4.22044e-05
-0.00181745
1.26222e-05
-6.30388e-06
0.00183425
-6.5323e-05
0.0016961
-2.37299e-05
-5.60326e-05
0.000542688
1.17164e-05
-0.0019879
-5.5797e-05
-6.34655e-05
-6.35741e-05
-0.00644703
0.00984186
-4.96655e-05
0.00916004
-1.06207e-06
-0.0125041
0.00131887
-0.0111755
0.00183163
0.0121065
-0.0018927
0.000210487
-0.00232651
-0.000194903
0.000131885
0.00244408
-0.000265044
-0.000118835
0.00140122
-0.0117746
-0.000108321
0.0122495
-0.00181288
0.000147747
-0.000150757
0.000166852
0.000129117
-0.0020163
5.00304e-05
-3.31376e-05
0.00203019
-0.000159914
0.00169356
2.28122e-05
-5.5362e-05
0.000541429
-3.54149e-05
-0.00198549
-5.54472e-05
-6.31131e-05
-6.2975e-05
-0.00646195
0.0098327
5.4465e-05
0.00917637
-0.000119826
-0.0124817
-0.0124708
0.00139013
0.00308486
0.0121309
-0.00199967
0.00144299
-0.00228981
0.0105129
-0.00203583
-0.00253884
-0.00227634
-0.00252502
0.00104618
0.00093691
0.00103509
0.000938702
-0.00424694
-0.001111
-0.00030272
0.000344953
-2.97828e-07
0.00149898
-0.00042993
0.00138881
0.00146783
-0.0124272
-0.000831446
0.0124709
-0.00206893
0.000188967
-0.00218842
0.000121872
-8.20269e-05
0.00219266
-0.000233061
0.0016756
8.0872e-05
-5.6149e-05
0.000551108
-9.80228e-05
-0.00196959
-5.65402e-05
-6.37722e-05
-6.35058e-05
-0.0065775
0.00979567
0.000199887
0.00929485
-0.000302229
-0.0124107
0.00144748
0.060414
-0.0221683
-0.01256
-0.0126732
-0.0123166
-0.0124242
0.00261259
0.00140794
0.00255839
-0.0111036
0.001848
0.00149335
0.0118935
-0.00268378
-0.0108178
-0.00119155
0.00183552
0.000495114
0.0123401
-0.00266139
0.00168918
-0.0126762
0.000317989
0.0132438
-0.00240728
-0.000167537
0.000228606
-0.0023147
1.09151e-05
-8.61155e-06
0.0023652
-0.000281421
0.00165641
0.00017445
-5.82836e-05
0.000576349
-0.000206542
-0.00195118
-5.93326e-05
-6.62491e-05
-6.56186e-05
-0.0068439
0.00972967
0.000432919
0.00956753
-0.000616376
-0.0122698
0.0128313
0.0670408
-0.0241098
0.0084334
0.0675868
-0.0252463
-0.0129383
-0.0131904
-0.0126136
-0.0128212
0.000540394
0.0708876
-0.0250893
0.0022391
0.000561393
0.00215017
-0.0141335
-0.0144017
-0.0137723
-0.0140338
0.00186995
-0.0137413
0.000986219
0.0141226
-0.00269714
0.000230282
-0.0025793
-0.00020971
0.000176893
0.00266841
-0.000286578
0.00166367
0.000399641
-5.91941e-05
0.000665763
-0.000510834
-0.00196018
-6.29735e-05
-6.68321e-05
-6.90694e-05
-0.00736272
0.00964608
0.000848994
0.010069
-0.00117397
-0.0120274
0.00954732
0.0784284
-0.0283143
0.0115605
0.0785609
-0.0288647
0.00288658
0.0796091
-0.0278711
0.00488439
0.00285711
0.00486829
0.00211764
-0.0148397
0.00353331
0.0150769
-0.00300146
-0.00293538
0.000152636
-0.000910083
0.000841987
-0.000123587
0.00297443
0.000977668
-0.000150028
0.00160675
0.00123248
-0.00102489
-0.00178962
-0.00032407
-0.000181808
-0.000346477
-0.00856463
0.00966826
0.00143037
0.0109425
-0.00134901
-0.0121275
0.0121156
0.0886132
-0.0312343
0.0170037
0.0881438
-0.0320193
0.024674
0.08688
-0.0319476
0.00724819
0.0802116
-0.0358613
-0.0161379
-0.0162418
-0.0155784
-0.0155683
0.00753615
0.00571032
0.00697766
0.00305492
0.0036089
0.00468836
0.00502564
-0.0136025
0.00366777
0.00829397
0.0137649
-0.00487597
-0.0019288
0.000784418
0.00814559
0.0106814
-0.0065691
-0.00169921
-0.00204638
-0.00191749
-0.00856813
0.00105019
0.000957721
0.0011098
-0.00140375
0.00124368
-0.00783466
0.00758461
0.00871184
-0.00809014
-0.00124197
-0.0015545
-0.00151005
0.0013774
0.00132724
0.0013903
-0.00114773
0.00137337
-0.00767146
0.00798619
0.0073082
-0.00868037
-0.000993811
-0.00129339
-0.00124947
0.00146819
0.0014259
0.00147436
-0.00074531
0.00154634
-0.00861999
0.00955428
0.00503389
-0.00946702
-0.000527705
-0.000910178
-0.000737477
0.00164903
0.00157526
0.00164889
0.000123249
-0.0103824
0.00910967
0.00969327
0.0025131
-0.011057
0.00440516
-0.0699573
0.000747231
0.000991112
-0.000639151
-0.000245761
-0.0103911
-0.0102226
-0.0109919
-0.0107211
0.0112789
0.101707
-0.0422305
0.0149753
0.100653
-0.0434066
0.0207185
0.0981162
-0.0431648
0.0249012
0.090683
-0.0476533
0.0253498
0.0819215
-0.0484129
-0.015031
-0.0137995
-0.0147939
-0.0140387
0.0045883
0.00518439
0.00668858
0.00724469
0.02528
0.0730044
-0.0530218
-0.0122971
-0.0115974
-0.0120662
-0.0115662
0.00549801
0.00603168
0.00781935
0.00826507
0.0265085
0.0647607
-0.0565814
-0.0103887
-0.00964718
-0.0101825
-0.00973041
0.00627838
0.00682595
0.00852737
0.0089093
0.0308682
0.0557388
-0.0602203
-0.00875426
-0.00772162
-0.0085434
-0.00793927
0.00694112
0.00765764
0.00901913
0.00946242
0.0346448
0.045003
-0.0644277
-0.00623585
-0.00463286
-0.0060907
-0.00513221
0.00833787
0.00884314
0.0100843
0.0104745
0.0408814
0.0295268
-0.072223
-0.00428234
-0.00235834
-0.0045504
-0.00330972
0.0183348
-0.0733643
0.0097895
-0.0472345
0.0114552
-0.048174
0.0137018
-0.0493162
0.0155778
-0.0507767
0.0161108
-0.0565702
0.0164437
-0.0588733
0.0171008
-0.0619877
0.0193024
-0.0645682
0.0215458
-0.0674852
0.0307646
-0.0726283
-0.0753057
0.0147131
0.00804574
-0.0174522
0.0215121
0.00745143
-0.016318
0.0301286
0.00557126
-0.0144556
0.0429545
0.00200144
-0.0130362
0.0574587
-0.000273745
-0.0112555
0.000370236
-0.000114579
0.000378015
0.0713583
-9.31781e-05
-0.0140111
0.000798213
-0.000107806
0.000791265
0.00109325
0.00204119
0.00144099
0.00260182
0.0838771
0.000177098
-0.01971
0.00123077
0.000110337
0.00121661
0.00239333
0.00351762
0.00291316
0.00410524
0.0972201
0.000239678
-0.0263728
0.00158117
8.86468e-05
0.00152711
0.00349489
0.0048921
0.00410542
0.00559575
0.104841
0.00142385
-0.0364388
0.00305851
0.00102518
0.00301115
0.00614074
0.00742936
0.00690895
0.00830374
0.104551
0.00226432
-0.0493758
0.0039784
0.001384
0.00306594
0.0131215
-0.0506589
0.0147805
0.00767251
-0.0188781
0.0208027
0.0070397
-0.0176981
0.0285325
0.00395446
-0.0161774
0.00894
0.000133329
-0.0137534
0.00863167
0.00870739
0.00845731
-6.45905e-06
0.000270008
2.83441e-05
0.00118066
0.0101796
-0.00103205
-0.00166197
0.00147767
0.012974
-0.000662334
-0.00206436
-0.0118182
0.002561
-0.0141885
0.0152893
-0.000295059
-0.00318973
0.00375462
-0.0165971
0.0177259
-0.000158403
-0.00448536
0.00540524
-0.0189577
0.0201647
0.00104101
-0.00622936
-0.0206686
0.00741584
0.0195827
0.00343755
-0.00750316
0.00279392
-0.0639624
-0.019511
-0.0190972
-0.0197042
-0.0191434
0.00290796
0.00178646
0.00160778
0.0142098
0.0079136
-0.0196275
0.0194943
0.00765297
-0.0188145
0.00550683
0.00700922
-0.0167068
0.00513348
0.00563071
0.00521598
0.00161554
0.00586089
0.000225908
-0.00206215
0.000478413
-0.000797171
0.00158466
-0.00686415
0.00177249
0.00182022
0.00173737
0.0018436
-0.000391571
-0.000399104
-0.000408469
-0.000376269
0.000188049
-0.002223
0.00028104
0.00233617
-0.000354737
-0.000227533
0.000483021
-0.00258951
0.00016858
0.00265345
-0.000193173
-0.00052237
0.000697133
-0.0030097
0.000156089
0.00311112
-0.00021129
-0.00074335
0.00101832
-0.00364187
-4.83301e-05
0.00381762
-5.68534e-05
-0.00108889
-0.00376208
0.00150013
-0.00123952
0.00166002
-0.00153092
0.00337237
-0.0135787
0.0107799
0.0139547
0.00326628
-0.0116283
0.01228
0.0103763
-0.019542
0.0173846
0.00214384
-0.0187763
0.0022514
0.00188789
0.0022156
0.00470178
0.00272088
-0.0167588
0.00452946
0.00480348
0.00470547
0.00296252
0.00251505
0.0029861
0.00138576
-0.000897117
0.00429701
0.00168751
-0.00177142
0.000106541
0.000153598
-0.000895143
0.000776602
-2.03586e-05
-0.000121247
0.00218791
-0.000250448
-0.00191969
0.00123626
0.00156752
-0.00224987
-0.000201933
-0.000123278
-0.000246464
-0.00824518
0.0120455
-0.00343951
0.00988529
0.00267386
-0.0129199
0.0033755
0.00293273
-0.0195278
0.0035315
0.00324058
0.00364089
0.00291624
0.0028426
0.00281576
0.00193862
0.0036738
0.00235822
-0.00245135
0.00151665
-0.0039922
0.00424808
0.00287259
-0.0019243
0.00109495
-0.00276441
-0.00395686
0.00319855
0.00382402
-0.00139632
9.38856e-05
-0.000424658
-0.000510601
0.000397349
0.000552936
-0.000108936
0.00234591
-0.000804813
-6.80988e-05
0.00060251
0.00064693
-0.00251669
-6.20833e-05
-7.01342e-05
-7.35335e-05
-0.00594978
0.0131199
-0.00201874
0.00763256
0.00142738
-0.0142113
0.00186048
0.00257033
0.00299885
-0.00239055
0.00185065
0.00407216
-0.00233764
-0.00240717
-0.00317194
0.000508375
0.000486352
0.000522649
0.000476486
-0.00505176
0.00137576
0.00502723
-0.00171672
0.000699696
0.000664641
0.00114362
0.00114289
-0.00328541
-0.00380932
0.000896415
-0.00504382
0.00258224
0.00649445
-0.00112003
6.20023e-05
-0.000949296
-0.000326552
0.000233149
0.00105185
-7.11639e-05
0.00248404
-0.000369946
-5.11235e-05
0.000460087
0.000307234
-0.0026647
-4.73264e-05
-5.87926e-05
-5.94734e-05
-0.00493777
0.0137579
-0.00101529
0.00643861
0.000703039
-0.0149465
0.00207969
0.00191963
0.00416279
-0.00266267
-0.00338286
0.000434562
-0.000536643
-0.000369758
0.000287422
0.000679411
-0.000495012
-0.000415104
0.000829077
-0.0076948
0.000902454
0.00847338
-0.00111659
-0.000261796
-0.000441474
-0.000275204
4.64703e-05
-0.00136358
-7.85781e-05
6.41114e-05
0.00139322
-6.166e-05
0.00257887
-0.000175283
-3.99667e-05
0.000395208
0.000140734
-0.00276236
-3.82751e-05
-4.92843e-05
-4.9647e-05
-0.00445418
0.01413
-0.000481379
0.0058491
0.000318997
-0.0153625
0.00218177
-0.00537504
0.00132913
0.00671072
-0.00272174
0.000328746
-0.00120436
-5.20366e-05
-2.07046e-05
0.00133598
-0.000387618
-0.000123486
0.00101479
-0.00892922
0.000253817
0.00939768
-0.00134846
-9.5158e-05
-0.000126531
-4.34734e-05
7.32957e-05
-0.00154365
-1.75623e-05
2.2446e-05
0.00156121
-9.57571e-05
0.00263586
-7.60124e-05
-3.5529e-05
0.000368061
5.98865e-05
-0.00282497
-3.45598e-05
-4.65236e-05
-4.62158e-05
-0.00423371
0.0143323
-0.000199461
0.00558564
0.000104273
-0.015589
0.00231138
-0.00804334
0.00135913
0.00935604
-0.0028298
0.000366519
-0.00170009
-9.42565e-05
4.58543e-05
0.00179763
-0.000415656
-0.000160452
0.00144689
-0.00995878
0.000263356
0.0105758
-0.00179668
-9.49637e-05
-0.000204899
-7.03424e-05
0.000148826
-0.0017333
6.69057e-06
4.49758e-06
0.00174469
-0.000171409
0.00267692
-1.49138e-05
-3.12777e-05
0.000358756
1.19005e-06
-0.00287607
-3.12576e-05
-4.15423e-05
-4.18047e-05
-0.00418711
0.0144295
-2.73187e-05
0.00551664
-4.23757e-05
-0.0156893
0.00244687
-0.010599
0.00182885
0.0114874
-0.00297474
0.000435545
-0.00221221
-0.000204961
0.000135561
0.00233155
-0.000485493
-8.04298e-05
0.00221236
-0.0111922
4.51404e-05
0.0115531
-0.00263956
0.000130779
-0.000161805
0.000132564
0.000263898
-0.00190867
2.80683e-05
-1.10173e-05
0.00191961
-0.000291899
0.00267771
3.79647e-05
-3.25716e-05
0.000359902
-5.01504e-05
-0.00287312
-3.30588e-05
-4.35938e-05
-4.30851e-05
-0.0042667
0.0143827
0.000122772
0.00559351
-0.000222088
-0.0156102
-0.0117864
0.00258589
0.00305911
0.0114029
-0.0031267
0.00260669
-0.00217925
0.00986569
-0.00312422
-0.00241527
-0.00216504
-0.00240438
0.00106162
0.000963321
0.00105079
0.000952825
-0.00421279
-0.00100475
-0.000376127
0.000666023
8.00735e-05
0.00136164
-0.000726873
0.000991718
0.00264819
-0.0116623
-0.000444962
0.0116669
-0.0031996
0.000369015
-0.00207063
6.08482e-05
-2.97932e-05
0.00207789
-0.000407347
0.00267751
0.000108245
-2.77318e-05
0.00037694
-0.000136434
-0.00290556
-2.7331e-05
-3.4005e-05
-3.16294e-05
-0.00453777
0.0142591
0.000342609
0.0058699
-0.000497662
-0.0154362
0.00161395
0.0549618
-0.030653
-0.0116999
-0.0117902
-0.0114344
-0.0115238
0.00269163
0.00149516
0.00252862
-0.010267
0.00348952
0.00171589
0.0108879
-0.00421234
-0.0098539
-0.00143644
0.00345632
0.000790736
0.0112169
-0.00417366
0.00312114
-0.0117481
0.000775336
0.0121405
-0.00376142
-0.000527443
0.00043748
-0.00219006
-0.000115531
9.89036e-05
0.00224504
-0.000475847
0.00271679
0.000287057
-1.11824e-05
0.000435378
-0.000353189
-0.00299641
-1.56068e-05
-2.7965e-05
-3.48752e-05
-0.00511366
0.0140089
0.00067609
0.00646699
-0.00097133
-0.015067
0.0125877
0.0601216
-0.0335341
0.00895886
0.06031
-0.0352699
-0.0117593
-0.0119559
-0.0114202
-0.0115222
0.000999773
0.0627187
-0.0350298
0.00258519
0.000832384
0.00234572
-0.0127633
-0.0129807
-0.0123264
-0.0125119
0.0035997
-0.0124357
0.00162915
0.012745
-0.00453843
0.000444948
-0.00240418
-0.000449262
0.000419471
0.00248336
-0.000494334
0.00272635
0.000701136
-8.17885e-05
0.000749968
-0.000846726
-0.00290367
-9.88009e-05
-8.04372e-05
-0.000166021
-0.00625897
0.0136379
0.00131219
0.00747759
-0.00155792
-0.0146108
0.00952236
0.0690285
-0.0384291
0.0111706
0.0690751
-0.0392781
0.00309147
0.0697252
-0.0382862
0.00472685
0.00255075
0.00421024
0.00429521
-0.0130161
0.00411084
0.0129973
-0.00529572
0.00397094
-0.00265197
0.0122056
-0.00585612
-0.00261805
-0.00258528
-0.00251688
0.00135938
0.00152045
0.00120939
0.0014093
-0.00544671
0.00110438
-0.000360783
-0.00201972
0.00194542
0.00174521
-0.00131799
-0.000332873
-0.000391506
-0.000372149
0.00180952
-0.000289015
-0.00157079
0.00151828
0.00137427
-0.00192318
-0.000270353
-0.00032538
-0.000323348
0.00189168
-0.000272696
-0.00154157
0.00158142
0.00122685
-0.00202338
-0.000250674
-0.000307257
-0.000304382
0.0019573
-0.00021378
-0.00190162
0.00206451
0.000895037
-0.0021319
-0.000179481
-0.000246788
-0.000243281
0.00257474
0.00066974
-0.00213005
0.00928853
0.000636902
-0.0133066
0.000573411
0.000149731
0.000261589
0.0026197
0.00268334
0.0026436
-0.00204667
-0.00234208
-0.00227592
0.00401329
-0.0767996
-0.00949409
-0.00928307
-0.0106726
-0.010317
0.0151656
0.0146638
0.01499
0.0147023
0.00109169
0.00130759
-0.000385886
-0.000132375
0.0113974
0.0770068
-0.0422919
0.0156123
0.0765718
-0.0437307
0.0210944
0.0758652
-0.0435696
0.00519752
0.0698315
-0.0491299
-0.0141301
-0.0141687
-0.0140514
-0.0137612
0.00620026
0.00408353
0.00516171
-0.0118357
0.00647901
0.00585586
0.0124127
-0.00771433
-0.00992343
0.00871687
-0.00652456
0.00654588
0.0106977
-0.00951241
-0.0084482
0.0100964
-0.00655478
0.00653745
0.00934758
-0.0109785
-0.00717346
0.0107517
-0.00673545
0.00699457
0.007934
-0.0117714
-0.00501274
0.0113598
-0.00752973
0.00783727
0.0058849
-0.0125394
0.0433348
0.0181624
-0.0754552
-0.0023206
-0.000647934
-0.00365779
-0.00250233
0.014056
0.01413
0.0135966
0.0140886
-0.00831527
-0.00711395
-0.008968
-0.0083872
0.00693359
-0.0784856
0.010822
0.0845881
-0.0523097
0.0138773
0.0836401
-0.05353
0.0191615
0.0815556
-0.0541392
0.0233536
0.0748837
-0.0568976
0.0230593
0.068037
-0.0620278
-0.0136737
-0.0132341
-0.0139508
-0.0132692
0.0225018
0.0607536
-0.0653937
-0.0120942
-0.0114714
-0.0123531
-0.0119053
0.0234366
0.0531716
-0.0687581
-0.0105878
-0.00984515
-0.0109768
-0.0105201
0.0252016
0.0447203
-0.0718084
-0.00892685
-0.00780953
-0.00939309
-0.00876753
0.0263055
0.0344812
-0.0747259
-0.00673764
-0.00494383
-0.00719659
-0.00640878
0.0296207
0.0228245
-0.0802003
0.0114106
-0.082398
0.00952526
-0.0578209
0.010869
-0.0590338
0.0126199
-0.0598827
0.013826
-0.0618481
0.0143301
-0.0645931
0.0148736
-0.0673456
0.0156256
-0.0703147
0.0170429
-0.0732878
0.0184499
-0.0766216
0.0223073
-0.0815469
-0.0853628
0.0142898
0.00816837
-0.0229728
0.0206394
0.00763416
-0.0218062
0.0282015
0.00649857
-0.0200261
0.0390353
0.00317638
-0.0185701
0.0524201
0.000336447
-0.0182446
0.000809796
0.00028202
0.00064204
0.0654962
0.000227324
-0.0204921
0.000945928
-1.14395e-05
0.000711272
0.0770464