/*--------------------------------*- C++ -*----------------------------------*\
| =========                 |                                                 |
| \\      /  F ield         | OpenFOAM: The Open Source CFD Toolbox           |
|  \\    /   O peration     | Version:  v1906                                 |
|   \\  /    A nd           | Web:      www.OpenFOAM.com                      |
|    \\/     M anipulation  |                                                 |
\*---------------------------------------------------------------------------*/
FoamFile
{
    version     2.0;
    format      ascii;
    class       volVectorField;
    location    "30";
    object      U;
}
// * * * * * * * * * * * * * * * * * * * * * * * * * * * * * * * * * * * * * //

dimensions      [0 1 -1 0 0 0 0];


internalField   nonuniform List<vector> 
34761
(
(0.136899 0.0799615 -0.036061)
(0.22038 0.0700825 -0.0278293)
(0.287779 0.0420517 -0.0269316)
(0.428167 0.0543519 0.00856007)
(0.423266 0.0497266 -0.0106728)
(0.585189 0.0577066 -0.015057)
(0.717607 0.0635837 -0.0220875)
(0.871311 0.0668526 -0.0308377)
(1.06037 0.07013 -0.0407357)
(1.35983 0.0224564 -0.180767)
(1.697 0.157056 -0.199354)
(0.138671 0.0995279 -0.0419659)
(0.204534 0.0966054 -0.039658)
(0.281156 0.0526961 -0.0149419)
(0.294467 0.0114976 -0.0168613)
(0.47116 -0.0544954 -0.0102022)
(0.657164 0.000685686 -0.0184934)
(0.783419 0.0182416 -0.0259436)
(0.935958 0.0277682 -0.0348288)
(1.11821 0.0613071 -0.042805)
(1.24299 0.178942 -0.035528)
(1.52655 0.289302 -0.269814)
(0.141385 0.0970168 -0.0474382)
(0.19465 0.0759778 -0.0431247)
(0.263421 0.046874 -0.0396017)
(0.247876 0.000287567 -0.0127683)
(0.243684 -0.0995131 0.00485366)
(0.394505 -0.0371142 -0.00229617)
(0.40624 -0.0182478 -0.0042601)
(0.480509 -0.0200463 -0.00536055)
(0.596954 -0.008005 -0.0064894)
(0.643681 0.528603 -0.088497)
(0.753114 0.194836 -0.138294)
(0.112409 0.129472 -0.0427558)
(0.157324 0.134579 -0.041534)
(0.231143 0.151111 -0.0320488)
(0.210573 0.0648273 -0.00973552)
(0.14277 0.00755233 -0.00228997)
(0.232417 0.263171 0.00838529)
(0.656656 0.130394 -0.153031)
(0.140352 0.194489 -0.041477)
(0.146896 0.12012 -0.0152671)
(0.186711 0.129674 -0.0110387)
(0.170148 0.160107 -0.00551213)
(0.0735851 0.112435 -0.00222811)
(0.219157 0.140153 0.00336665)
(0.619815 0.0669794 -0.16438)
(0.109413 0.183394 -0.0149005)
(0.145135 0.143904 -0.0111185)
(0.241083 0.155586 -0.00898084)
(0.141885 0.268448 -0.0051798)
(0.0523018 0.199736 -0.00248353)
(0.217345 0.0763347 -0.00243229)
(0.60089 0.0322708 -0.169567)
(0.0938188 0.227321 -0.0130452)
(0.0578838 0.170832 -0.00823536)
(0.125125 0.378139 0.00435359)
(0.0346934 0.268872 -0.00258006)
(0.217818 0.0400615 -0.00735002)
(0.591882 0.0146684 -0.171758)
(0.0786609 0.329601 -0.0153897)
(-0.00675843 0.285568 -0.00640329)
(0.303163 0.379291 0.0113391)
(0.0634771 0.295582 -0.00138317)
(0.219784 0.018944 -0.0111459)
(0.588394 0.00549265 -0.172587)
(0.0744037 0.457569 -0.0162977)
(-0.000972473 0.365922 -0.006075)
(0.250853 0.417885 0.00138093)
(0.0374065 0.343075 -0.00269881)
(0.222989 0.00566024 -0.0141154)
(0.588103 0.000826881 -0.172845)
(0.072257 0.592604 -0.0174752)
(-0.006791 0.483699 -0.00761627)
(0.0792909 0.519408 -0.0188454)
(0.00360348 0.389219 -0.00405329)
(0.222277 -0.00601275 -0.0143405)
(0.587693 -0.00195542 -0.172826)
(0.126032 0.659143 -0.0195417)
(0.296612 0.538179 -0.0210187)
(-0.0303922 0.2458 -0.00905647)
(-0.0553609 0.597252 -0.0197472)
(-0.017452 0.428327 -0.00479409)
(0.218872 -0.0184321 -0.0120205)
(0.588686 -0.00804648 -0.172658)
(0.100267 0.756731 -0.0808531)
(0.0644186 0.609598 -0.0261168)
(0.0363088 0.58594 -0.0244992)
(0.0131168 0.623621 -0.0219984)
(-0.007659 0.457458 -0.00562431)
(0.216834 -0.0362489 -0.00937432)
(0.592433 -0.018762 -0.172108)
(0.165168 0.811947 -0.0853986)
(0.167567 0.825781 -0.0896779)
(0.0448264 0.876552 -0.087098)
(0.00799018 0.689955 -0.0246421)
(0.0158401 0.513829 -0.00523436)
(0.217354 -0.06546 -0.00776989)
(0.598223 -0.0376172 -0.170374)
(0.116693 0.915304 -0.10556)
(0.11445 0.908418 -0.105288)
(0.144173 0.924099 -0.0995295)
(0.106485 0.771892 -0.0291841)
(0.101568 0.592591 -0.00743873)
(0.239524 -0.130091 -0.028084)
(0.597271 -0.0603746 -0.161433)
(0.133738 1.17466 -0.11533)
(0.154793 1.19098 -0.117049)
(0.249838 1.18114 -0.10705)
(0.238449 0.794 -0.0700605)
(0.365695 0.721339 -0.0940487)
(0.429461 0.325928 -0.0606794)
(0.328972 0.231096 -0.0634562)
(0.324146 0.192673 -0.062497)
(0.390396 0.128852 -0.0598302)
(0.604614 -0.00314255 -0.130266)
(1.14447 0.00475562 -0.377853)
(0.129963 1.19826 -0.192011)
(0.1479 1.17865 -0.201191)
(0.264022 1.16377 -0.187861)
(0.270745 1.04792 -0.276489)
(0.174084 0.857118 -0.113779)
(0.280405 0.712014 -0.119405)
(0.29859 0.642641 -0.127299)
(0.323338 0.573165 -0.134728)
(0.392422 0.476241 -0.140853)
(0.464853 0.284114 -0.421336)
(0.946657 0.119556 -0.409561)
(0.109441 1.76712 -0.217328)
(0.136676 1.75644 -0.220976)
(0.157915 1.7154 -0.232091)
(0.252663 1.60428 -0.237299)
(0.265748 1.45148 -0.34074)
(0.173426 1.38766 -0.340173)
(0.192211 1.30743 -0.358006)
(0.192716 1.21731 -0.362398)
(0.259169 1.09611 -0.374391)
(0.288053 0.867539 -0.396249)
(0.816314 0.703763 -0.40038)
(0.137752 0.0849258 -0.103911)
(0.211682 0.0721361 -0.0913356)
(0.304116 0.0670572 -0.0729215)
(0.388912 0.00797722 -0.0384916)
(0.629896 0.0668086 -0.0430016)
(0.573272 0.0676113 -0.08893)
(0.679781 0.0630525 -0.0978934)
(0.818824 0.0653932 -0.132928)
(0.978456 0.0671103 -0.192209)
(1.24056 0.0220237 -0.534855)
(1.37665 0.149524 -0.468416)
(0.135059 0.101837 -0.11757)
(0.216235 0.0970875 -0.10957)
(0.275329 0.0620081 -0.0793679)
(0.410534 0.00765473 -0.0759883)
(0.45113 -0.0611656 -0.0500982)
(0.626052 0.0150747 -0.0739986)
(0.744528 0.0107223 -0.0997297)
(0.880252 0.0163804 -0.138321)
(1.03201 0.0553179 -0.189827)
(1.1062 0.153774 -0.260137)
(1.20672 0.239862 -0.573509)
(0.140061 0.0866433 -0.12624)
(0.19148 0.0695498 -0.118119)
(0.263126 0.0263209 -0.10439)
(0.237507 -0.0168934 -0.0436348)
(0.256664 -0.0766752 -0.0101129)
(0.490436 -0.0495083 0.000833075)
(0.541539 -0.0176673 -0.048753)
(0.637777 -0.0185989 -0.0716814)
(0.798208 0.0098154 -0.113686)
(0.694532 0.358319 -0.200678)
(0.62429 0.19324 -0.43481)
(0.114322 0.117815 -0.121365)
(0.162111 0.122222 -0.116456)
(0.229164 0.144686 -0.0980931)
(0.203568 0.0585913 -0.0368009)
(0.142405 0.000588486 -0.00557619)
(0.178208 0.304243 -0.273159)
(0.476535 0.134871 -0.480516)
(0.142214 0.170444 -0.120582)
(0.156991 0.110043 -0.054816)
(0.189422 0.126586 -0.0423541)
(0.165465 0.158627 -0.0305883)
(0.0702702 0.107956 -0.00294678)
(0.1386 0.131274 -0.30227)
(0.40691 0.0713985 -0.516674)
(0.110844 0.166191 -0.0579867)
(0.154493 0.126119 -0.0552193)
(0.24838 0.158837 -0.0409821)
(0.135204 0.270797 -0.0271419)
(0.0457629 0.197306 -0.00159744)
(0.121273 0.0659052 -0.326467)
(0.368594 0.0357088 -0.539187)
(0.0936411 0.20597 -0.0635464)
(0.0664231 0.145006 -0.0450727)
(0.046551 0.381187 -0.0210285)
(0.0163105 0.266748 0.0020287)
(0.111373 0.0323302 -0.34284)
(0.348752 0.0170586 -0.551966)
(0.0772683 0.312498 -0.0675954)
(-0.00855773 0.268994 -0.0230115)
(0.01203 0.422528 -0.0306101)
(0.00814314 0.298793 0.00360013)
(0.10602 0.0143855 -0.352718)
(0.339555 0.00698934 -0.558716)
(0.0730199 0.438353 -0.0719664)
(-0.00204322 0.357072 -0.0329098)
(0.0156304 0.467355 -0.0455417)
(0.00224568 0.337073 -0.00714108)
(0.103544 0.00349585 -0.359143)
(0.336761 0.00111498 -0.562099)
(0.0716754 0.57027 -0.0763352)
(-0.00700436 0.47489 -0.0406916)
(-0.000872252 0.534537 -0.0701724)
(-0.0062103 0.375998 -0.0238978)
(0.103367 -0.00527839 -0.358619)
(0.337508 -0.00398482 -0.561194)
(0.125084 0.628259 -0.0848272)
(0.285569 0.50989 -0.0882645)
(-0.00742116 0.232797 -0.0694318)
(-0.0535767 0.576813 -0.0839638)
(-0.0181787 0.41131 -0.0373175)
(0.105352 -0.0165448 -0.355122)
(0.343001 -0.0116642 -0.558244)
(0.0994684 0.703537 -0.218093)
(0.0720363 0.567799 -0.109485)
(0.0411868 0.547417 -0.108099)
(0.0185063 0.595533 -0.0977921)
(-0.00366536 0.442873 -0.0462474)
(0.110069 -0.0353382 -0.350963)
(0.35502 -0.0242552 -0.553403)
(0.159498 0.74049 -0.233776)
(0.162552 0.751281 -0.243568)
(0.0560404 0.797212 -0.237739)
(0.0217948 0.658097 -0.108772)
(0.0268042 0.501011 -0.0452742)
(0.122582 -0.0832228 -0.348431)
(0.375104 -0.0470328 -0.54839)
(0.116898 0.832491 -0.278292)
(0.118041 0.823565 -0.281384)
(0.16412 0.84399 -0.268188)
(0.123819 0.743178 -0.126813)
(0.146555 0.579268 -0.0417472)
(0.242847 -0.230282 -0.348127)
(0.408507 -0.0713587 -0.555647)
(0.131653 1.02307 -0.305503)
(0.16014 1.0273 -0.309551)
(0.246862 1.02285 -0.30605)
(0.33013 0.968699 -0.337341)
(0.349613 0.642506 -0.212102)
(0.383859 0.4768 -0.264644)
(0.357858 0.371787 -0.341858)
(0.367205 0.304197 -0.367339)
(0.426272 0.197483 -0.404116)
(0.516778 0.0548933 -0.511534)
(0.697433 0.0259316 -0.795059)
(0.120525 1.04377 -0.444008)
(0.149504 1.02811 -0.458017)
(0.208242 1.00428 -0.445938)
(0.280941 0.904748 -0.519991)
(0.308217 0.816487 -0.475768)
(0.291667 0.688204 -0.539635)
(0.308055 0.580051 -0.583801)
(0.317112 0.473716 -0.628661)
(0.414375 0.330408 -0.701743)
(0.398055 0.212373 -0.809667)
(0.583651 0.0776951 -0.825706)
(0.108985 1.37201 -0.500479)
(0.12542 1.36288 -0.508801)
(0.147453 1.32718 -0.524984)
(0.177694 1.25474 -0.533923)
(0.190805 1.13507 -0.634939)
(0.190997 1.05084 -0.649554)
(0.19821 0.959631 -0.682288)
(0.205137 0.851479 -0.705909)
(0.250497 0.742635 -0.735318)
(0.253413 0.500866 -0.80632)
(0.48488 0.371374 -0.835232)
(0.134589 0.0857503 -0.176253)
(0.214412 0.0758769 -0.163002)
(0.296364 0.0656702 -0.139186)
(0.419605 0.0216988 -0.123128)
(0.59832 0.0300056 -0.0801653)
(0.755157 0.0388276 -0.120891)
(0.919844 0.0515601 -0.201503)
(1.04185 0.0546323 -0.277954)
(1.24739 0.105075 -0.434895)
(1.22419 0.0792569 -0.604058)
(1.2715 0.149414 -0.586175)
(0.134823 0.102376 -0.193086)
(0.216214 0.0990373 -0.180997)
(0.277306 0.065203 -0.162115)
(0.40329 0.0290507 -0.146694)
(0.437006 -0.0307052 -0.0670417)
(0.592029 -0.0184144 -0.0812601)
(0.705228 -0.0099179 -0.134937)
(0.828501 -0.0125657 -0.193381)
(0.948352 0.0352902 -0.273382)
(1.01057 0.112061 -0.401357)
(1.08639 0.158336 -0.767744)
(0.139055 0.0798122 -0.202325)
(0.197488 0.0662757 -0.191353)
(0.265697 0.0273573 -0.173904)
(0.260276 -0.00613309 -0.0873882)
(0.3608 -0.0834702 -0.03749)
(0.429357 -0.0474041 -0.0426765)
(0.49487 -0.0407196 -0.0964356)
(0.584227 -0.0447327 -0.138354)
(0.722705 -0.0232635 -0.194537)
(0.695795 0.231513 -0.313218)
(0.597594 0.121732 -0.575099)
(0.119002 0.105485 -0.200249)
(0.170557 0.112731 -0.190104)
(0.239408 0.134652 -0.166044)
(0.214982 0.0556056 -0.0737492)
(0.15923 -0.012449 -0.0183776)
(0.183076 0.303702 -0.408198)
(0.403791 0.142658 -0.627249)
(0.145883 0.145842 -0.201998)
(0.165507 0.0963025 -0.100689)
(0.199024 0.120763 -0.0775122)
(0.175092 0.151445 -0.0567615)
(0.0854675 0.0948189 -0.0141595)
(0.111593 0.134526 -0.472474)
(0.306918 0.078496 -0.681817)
(0.112391 0.142761 -0.109643)
(0.1672 0.105674 -0.101679)
(0.261162 0.155616 -0.071486)
(0.142738 0.263328 -0.0473147)
(0.0500697 0.188871 -0.0079256)
(0.0916516 0.0641156 -0.501161)
(0.255505 0.0392848 -0.716582)
(0.0935483 0.178914 -0.119313)
(0.0720055 0.11387 -0.0870452)
(0.0354762 0.366754 -0.0441506)
(0.0134152 0.259483 -0.00659655)
(0.0816645 0.0299548 -0.520129)
(0.229318 0.018222 -0.737164)
(0.0777254 0.287523 -0.118378)
(-0.00792304 0.244141 -0.0587635)
(-0.00851856 0.399921 -0.0522049)
(0.00290595 0.286499 -0.0118224)
(0.0767874 0.0130497 -0.531999)
(0.217664 0.00687086 -0.748282)
(0.0728155 0.41294 -0.12227)
(0.000774149 0.336492 -0.0717327)
(-0.000226056 0.449364 -0.0711408)
(-0.00205225 0.321338 -0.0245484)
(0.0755585 0.00167675 -0.540123)
(0.214493 -0.000494377 -0.753101)
(0.0720945 0.541239 -0.128607)
(-0.00352718 0.452598 -0.0796894)
(-0.00101456 0.507948 -0.10515)
(-0.0056759 0.356846 -0.0465611)
(0.0761017 -0.00804368 -0.541348)
(0.218411 -0.00823227 -0.74974)
(0.124516 0.592098 -0.142914)
(0.281233 0.479274 -0.145399)
(0.0112937 0.21332 -0.124032)
(-0.0358466 0.541746 -0.138618)
(-0.00963306 0.391992 -0.068702)
(0.0807601 -0.0225114 -0.541353)
(0.230453 -0.0201842 -0.741868)
(0.0994307 0.648299 -0.332118)
(0.0818519 0.519022 -0.18655)
(0.0534592 0.496516 -0.183826)
(0.0359732 0.549713 -0.165509)
(0.0173481 0.417577 -0.0823997)
(0.0888503 -0.0594184 -0.550009)
(0.255429 -0.0378737 -0.727929)
(0.154955 0.66649 -0.359959)
(0.160596 0.671019 -0.375049)
(0.0705248 0.708512 -0.369259)
(0.0473683 0.594756 -0.197771)
(0.0710693 0.466248 -0.088437)
(0.119914 -0.142527 -0.53499)
(0.289184 -0.0695241 -0.714003)
(0.114823 0.746233 -0.415244)
(0.120123 0.736684 -0.422271)
(0.154554 0.746798 -0.40659)
(0.146538 0.635335 -0.25645)
(0.267524 0.609222 -0.267301)
(0.379137 0.336653 -0.256375)
(0.284567 0.275661 -0.354881)
(0.288517 0.253938 -0.370753)
(0.371315 0.187074 -0.371344)
(0.504642 0.00309327 -0.67163)
(0.600004 0.0146067 -0.955056)
(0.129339 0.886787 -0.45724)
(0.14602 0.890087 -0.470398)
(0.231956 0.88959 -0.468653)
(0.263858 0.842582 -0.538029)
(0.239579 0.577083 -0.372058)
(0.305898 0.479776 -0.472539)
(0.307102 0.415639 -0.534882)
(0.325586 0.351415 -0.565211)
(0.377036 0.252479 -0.586649)
(0.461609 0.202657 -0.919188)
(0.57865 0.0867339 -0.936031)
(0.116758 0.911475 -0.585777)
(0.14368 0.89752 -0.598402)
(0.189722 0.880672 -0.602062)
(0.266832 0.789152 -0.636194)
(0.286759 0.738678 -0.696961)
(0.260657 0.646396 -0.738277)
(0.271964 0.559012 -0.773712)
(0.281461 0.460264 -0.811224)
(0.314454 0.334373 -0.845463)
(0.308994 0.225666 -0.941718)
(0.402211 0.0803481 -0.967086)
(0.108149 1.0954 -0.651342)
(0.120834 1.08645 -0.664093)
(0.140054 1.05457 -0.67321)
(0.161085 0.989281 -0.696591)
(0.168199 0.881025 -0.732606)
(0.172186 0.800179 -0.76755)
(0.180413 0.706592 -0.804652)
(0.18887 0.6045 -0.841248)
(0.215042 0.490098 -0.8868)
(0.22091 0.324463 -0.949851)
(0.314059 0.197377 -0.996644)
(0.132856 0.0877471 -0.243271)
(0.205962 0.0787128 -0.229463)
(0.284555 0.0747112 -0.208125)
(0.38448 0.0311637 -0.191817)
(0.540614 0.0409163 -0.190712)
(0.692886 0.039306 -0.216311)
(0.844315 0.0409503 -0.268778)
(0.95823 0.0357234 -0.34567)
(1.12369 0.0652973 -0.43211)
(1.09302 0.0805576 -0.588925)
(1.16942 0.0723423 -0.649405)
(0.134197 0.103446 -0.261226)
(0.21528 0.10069 -0.24396)
(0.271607 0.0777157 -0.226541)
(0.381465 0.0473271 -0.185332)
(0.401357 0.0061218 -0.124162)
(0.523839 0.0032964 -0.150313)
(0.626839 0.00751077 -0.202069)
(0.742661 0.00519635 -0.265195)
(0.866532 0.031434 -0.340526)
(1.15512 0.121979 -0.664001)
(1.09807 0.122908 -0.810198)
(0.1387 0.0753594 -0.271187)
(0.201397 0.0668791 -0.259828)
(0.258234 0.0365274 -0.223837)
(0.263855 0.0139201 -0.141416)
(0.375678 -0.0520103 -0.0738232)
(0.527621 -0.0522591 -0.104731)
(0.623635 -0.0442737 -0.164625)
(0.741344 -0.0448464 -0.223343)
(0.882863 0.00262798 -0.320219)
(0.947722 0.125227 -0.499771)
(0.926014 0.118842 -0.808891)
(0.124381 0.0947432 -0.275008)
(0.181571 0.107107 -0.259179)
(0.252345 0.135027 -0.229481)
(0.231173 0.067213 -0.116993)
(0.197914 -0.0203807 -0.0286578)
(0.327155 -0.0300407 -0.0288289)
(0.31539 -0.0470837 -0.0671266)
(0.37185 -0.0564438 -0.0893724)
(0.466368 -0.058842 -0.113825)
(0.481934 0.408708 -0.551255)
(0.448448 0.139071 -0.707602)
(0.148773 0.118727 -0.281557)
(0.175666 0.0834366 -0.149986)
(0.213788 0.115342 -0.118599)
(0.199669 0.144007 -0.0913111)
(0.131654 0.0780162 -0.0248799)
(0.153043 0.137728 -0.65323)
(0.330132 0.0776637 -0.784393)
(0.114418 0.119399 -0.163423)
(0.182707 0.0830903 -0.149547)
(0.278097 0.149533 -0.105906)
(0.167525 0.247029 -0.0728671)
(0.0909223 0.163985 -0.0115975)
(0.124066 0.0458319 -0.694145)
(0.277883 0.0356655 -0.82878)
(0.0932251 0.147013 -0.178651)
(0.0770848 0.0804951 -0.130073)
(0.0552943 0.337745 -0.0765558)
(0.0488337 0.229169 -0.0150018)
(0.112162 0.0361136 -0.703853)
(0.253532 0.0134285 -0.853866)
(0.0775389 0.255732 -0.171933)
(-0.00966024 0.211801 -0.098738)
(0.0175901 0.357129 -0.0902676)
(0.0396375 0.24971 -0.0294721)
(0.111956 -0.00143735 -0.723184)
(0.245036 0.00252918 -0.86759)
(0.0730542 0.381145 -0.171386)
(0.00491807 0.309611 -0.111569)
(0.0258508 0.398219 -0.108744)
(0.0386717 0.272043 -0.0476351)
(0.150353 -0.00082393 -0.699715)
(0.247693 -0.00664189 -0.86665)
(0.0728736 0.506211 -0.177649)
(0.000358146 0.425308 -0.11795)
(0.0258853 0.448827 -0.150505)
(0.0331984 0.299033 -0.0774768)
(0.177132 -0.0139226 -0.758583)
(0.26249 -0.0141311 -0.858816)
(0.124414 0.550887 -0.195633)
(0.279588 0.443136 -0.196188)
(0.0410486 0.188842 -0.166907)
(0.000107383 0.476568 -0.197001)
(0.0360351 0.328755 -0.104805)
(0.189506 -0.0503904 -0.812229)
(0.290694 -0.032255 -0.839625)
(0.101451 0.586745 -0.429343)
(0.0951506 0.463591 -0.254898)
(0.0741831 0.433057 -0.251852)
(0.0623862 0.47653 -0.249347)
(0.0801804 0.360767 -0.125392)
(0.210361 0.17699 -0.0533837)
(0.2063 0.213554 -0.0767809)
(0.257484 0.204572 -0.076003)
(0.364331 0.172321 -0.0664761)
(0.404774 -0.129898 -0.765426)
(0.347 -0.0325549 -0.789461)
(0.150368 0.589994 -0.466842)
(0.159295 0.587558 -0.490715)
(0.0776516 0.616499 -0.482109)
(0.0710899 0.517686 -0.304504)
(0.178942 0.52552 -0.270283)
(0.252904 0.354323 -0.188348)
(0.264693 0.35098 -0.250698)
(0.314692 0.327214 -0.261031)
(0.442202 0.246779 -0.285333)
(0.595204 0.0367019 -0.71628)
(0.607168 0.0346575 -0.990664)
(0.114037 0.655302 -0.527216)
(0.125318 0.637331 -0.537085)
(0.15109 0.647461 -0.521697)
(0.199398 0.689219 -0.535666)
(0.196889 0.531766 -0.36664)
(0.293959 0.477558 -0.435211)
(0.320423 0.43571 -0.492543)
(0.372951 0.38058 -0.523982)
(0.462479 0.272276 -0.563227)
(0.563261 0.150077 -0.925793)
(0.585759 0.057581 -0.954024)
(0.119259 0.756381 -0.576952)
(0.139688 0.758804 -0.595351)
(0.169203 0.756512 -0.589764)
(0.221852 0.729476 -0.651025)
(0.274314 0.682516 -0.660171)
(0.300853 0.610773 -0.71763)
(0.343917 0.531022 -0.769558)
(0.370451 0.44171 -0.810583)
(0.478125 0.324226 -0.869215)
(0.481683 0.214426 -0.913906)
(0.498837 0.0650567 -0.985484)
(0.110933 0.78392 -0.691315)
(0.129187 0.777694 -0.705546)
(0.157344 0.761618 -0.712837)
(0.194457 0.725087 -0.742347)
(0.221233 0.666246 -0.799849)
(0.238249 0.606986 -0.834178)
(0.256754 0.539196 -0.872698)
(0.271871 0.452855 -0.906063)
(0.302043 0.365296 -0.947925)
(0.308121 0.197486 -0.998774)
(0.344561 0.0872094 -1.04081)
(0.105497 0.909221 -0.760343)
(0.114833 0.905171 -0.774738)
(0.125973 0.882897 -0.782868)
(0.140848 0.83837 -0.802985)
(0.150516 0.775724 -0.829202)
(0.155752 0.703654 -0.855511)
(0.166368 0.622951 -0.885297)
(0.172818 0.523291 -0.919132)
(0.198974 0.41949 -0.957375)
(0.204604 0.259587 -1.02321)
(0.244868 0.135618 -1.07563)
(0.130432 0.0884088 -0.311025)
(0.202958 0.0851856 -0.296313)
(0.271635 0.0774885 -0.275498)
(0.359016 0.0751008 -0.256806)
(0.482785 0.0464929 -0.25126)
(0.600587 0.0366499 -0.27739)
(0.734286 0.0297205 -0.330675)
(0.832555 0.0230038 -0.408271)
(0.974735 0.0191865 -0.500599)
(1.0203 0.0453718 -0.633119)
(1.09234 0.0524886 -0.683426)
(0.138049 0.105261 -0.330101)
(0.213896 0.101369 -0.310413)
(0.295488 0.101428 -0.288177)
(0.375375 0.0431143 -0.248774)
(0.509754 0.042872 -0.228364)
(0.646512 0.0370012 -0.256455)
(0.782983 0.0426781 -0.32274)
(0.888908 0.0362636 -0.402113)
(1.05355 0.0678581 -0.545152)
(1.08629 0.0779892 -0.704301)
(1.06678 0.139859 -0.774115)
(0.135766 0.0692418 -0.341017)
(0.222097 0.0613366 -0.320201)
(0.251987 0.0426337 -0.28849)
(0.355027 0.0242808 -0.269136)
(0.357777 -0.0130192 -0.18265)
(0.464895 -0.0397353 -0.188237)
(0.553266 -0.0388415 -0.238932)
(0.657678 -0.0471268 -0.302531)
(0.765354 -0.0134604 -0.399752)
(0.850443 0.0462705 -0.510792)
(0.945195 0.0585973 -0.839956)
(0.129422 0.079479 -0.348769)
(0.191964 0.100439 -0.327382)
(0.255259 0.114093 -0.288574)
(0.253468 0.0841467 -0.166868)
(0.287298 0.0280233 -0.111584)
(0.344455 -0.0231827 -0.0856771)
(0.397403 -0.0252539 -0.114379)
(0.477493 -0.0356368 -0.150472)
(0.596369 -0.0184764 -0.226194)
(0.860257 0.10773 -0.582092)
(0.871013 -0.00703648 -0.912863)
(0.149259 0.0893423 -0.360484)
(0.185889 0.0711557 -0.199565)
(0.231074 0.106461 -0.162801)
(0.226923 0.136312 -0.149364)
(0.249722 0.114718 -0.0879358)
(0.312168 0.0376667 -0.0251857)
(0.379638 0.0157658 -0.059419)
(0.476728 -0.000976072 -0.0779473)
(0.637695 0.00311528 -0.139127)
(0.813478 0.054009 -0.732686)
(0.794575 0.0322437 -0.963796)
(0.116375 0.0940466 -0.218794)
(0.197089 0.0623813 -0.197987)
(0.295425 0.143104 -0.147433)
(0.204333 0.230105 -0.120092)
(0.204178 0.200544 -0.0776274)
(0.283474 0.0858876 -0.0233023)
(0.35831 0.0640756 -0.0544398)
(0.463971 0.0479444 -0.0709976)
(0.647575 0.0400881 -0.138076)
(0.818875 0.0243328 -0.751891)
(0.76511 0.00826859 -0.986568)
(0.0926615 0.112002 -0.240091)
(0.081721 0.0477329 -0.172467)
(0.0907909 0.298237 -0.132939)
(0.141745 0.248894 -0.113349)
(0.259919 0.119066 -0.0628756)
(0.337348 0.0977642 -0.0754766)
(0.445833 0.0782658 -0.0934049)
(0.623037 0.0621468 -0.162535)
(0.82777 0.0156585 -0.743515)
(0.747935 0.0110502 -0.992243)
(0.0777562 0.219484 -0.228128)
(-0.0157037 0.174769 -0.146469)
(0.0526938 0.305129 -0.156223)
(0.112847 0.272074 -0.152272)
(0.242087 0.142822 -0.0724329)
(0.326783 0.113629 -0.076734)
(0.439193 0.0866774 -0.0955308)
(0.615749 0.055347 -0.16768)
(0.824528 0.0112818 -0.717573)
(0.739311 0.00620514 -0.991401)
(0.0735039 0.344322 -0.220706)
(0.00893944 0.278868 -0.151418)
(0.0556676 0.338391 -0.184028)
(0.1176 0.309677 -0.192489)
(0.203483 0.165625 -0.0834345)
(0.309675 0.135323 -0.0808893)
(0.42153 0.103581 -0.102095)
(0.592742 0.0636093 -0.176121)
(0.795245 0.012901 -0.723233)
(0.731596 0.00952164 -0.988569)
(0.0737512 0.466472 -0.224776)
(0.0044566 0.394546 -0.154439)
(0.0566223 0.37917 -0.216461)
(0.0938165 0.34155 -0.205984)
(0.20033 0.206995 -0.101893)
(0.291391 0.16966 -0.101886)
(0.39541 0.136167 -0.123837)
(0.557465 0.0807664 -0.199464)
(0.76639 0.0183749 -0.705917)
(0.726816 0.0133683 -0.976707)
(0.124252 0.505795 -0.24447)
(0.280049 0.403621 -0.242522)
(0.0790657 0.160806 -0.203344)
(0.0405061 0.406544 -0.250032)
(0.10161 0.371778 -0.241602)
(0.280825 0.32535 -0.215946)
(0.372541 0.285405 -0.230753)
(0.502437 0.236687 -0.263837)
(0.665664 0.144393 -0.364387)
(0.785845 0.0605412 -0.649601)
(0.710805 0.0152618 -0.962811)
(0.104271 0.523483 -0.512182)
(0.107218 0.405156 -0.312004)
(0.100914 0.356155 -0.294529)
(0.0702162 0.49988 -0.445856)
(0.0972264 0.413177 -0.29039)
(0.250472 0.38165 -0.280293)
(0.34227 0.35399 -0.298145)
(0.450478 0.307233 -0.332903)
(0.579896 0.223259 -0.423286)
(0.67477 0.097366 -0.621086)
(0.677459 0.0550609 -0.951801)
(0.142532 0.515933 -0.554315)
(0.15994 0.50483 -0.577084)
(0.0499907 0.524419 -0.584063)
(0.102835 0.588764 -0.556764)
(0.177582 0.456627 -0.361902)
(0.246261 0.453198 -0.383049)
(0.304322 0.431254 -0.413967)
(0.384913 0.384584 -0.445562)
(0.493965 0.288328 -0.499606)
(0.638797 0.174035 -0.892092)
(0.632475 0.0617288 -0.942488)
(0.112265 0.568834 -0.617288)
(0.126569 0.55304 -0.628295)
(0.138238 0.553525 -0.622029)
(0.184086 0.615312 -0.613447)
(0.252498 0.578941 -0.622802)
(0.301825 0.544825 -0.6527)
(0.367345 0.490048 -0.698646)
(0.415666 0.412335 -0.746934)
(0.533649 0.298923 -0.831564)
(0.542581 0.181189 -0.912125)
(0.54301 0.0544555 -0.99042)
(0.115397 0.643351 -0.668651)
(0.131761 0.645983 -0.682165)
(0.147946 0.643282 -0.685202)
(0.183658 0.632008 -0.695869)
(0.231004 0.607241 -0.728303)
(0.272414 0.566111 -0.755438)
(0.310932 0.513359 -0.789306)
(0.347697 0.436536 -0.829503)
(0.388898 0.353246 -0.867558)
(0.406129 0.19097 -0.96985)
(0.441298 0.0813072 -1.01377)
(0.108217 0.668851 -0.764377)
(0.123714 0.665114 -0.776844)
(0.14318 0.652882 -0.781225)
(0.171267 0.630392 -0.795876)
(0.192752 0.592331 -0.821442)
(0.207766 0.539481 -0.85183)
(0.229675 0.474946 -0.885726)
(0.245189 0.394315 -0.923694)
(0.276908 0.299714 -0.963555)
(0.286085 0.18747 -1.02387)
(0.30728 0.0741811 -1.07091)
(0.104272 0.756624 -0.831886)
(0.111041 0.754592 -0.845987)
(0.119065 0.736514 -0.852762)
(0.129069 0.703793 -0.865532)
(0.138737 0.654852 -0.885981)
(0.14752 0.597423 -0.908207)
(0.156827 0.528931 -0.934607)
(0.16492 0.442864 -0.96743)
(0.177913 0.350768 -1.00304)
(0.182496 0.215257 -1.06326)
(0.2039 0.10159 -1.11071)
(0.128852 0.0886352 -0.371561)
(0.192355 0.0846974 -0.358639)
(0.25996 0.0822672 -0.34242)
(0.330556 0.0747614 -0.323763)
(0.427194 0.0707617 -0.322301)
(0.529017 0.066545 -0.339267)
(0.642789 0.0669752 -0.378661)
(0.730611 0.0629743 -0.441384)
(0.853516 0.0719447 -0.518006)
(0.891103 0.0669704 -0.625055)
(1.00879 0.0534617 -0.719426)
(0.135521 0.105594 -0.392524)
(0.207241 0.107774 -0.375671)
(0.2807 0.10646 -0.355476)
(0.356463 0.0990736 -0.337561)
(0.463262 0.0686805 -0.325411)
(0.572798 0.0532912 -0.342683)
(0.689178 0.042104 -0.386611)
(0.789609 0.024471 -0.4563)
(0.906973 0.03039 -0.540804)
(0.927515 0.0153961 -0.687455)
(0.977128 0.0679676 -0.808712)
(0.141035 0.0685766 -0.406163)
(0.21507 0.0655413 -0.381127)
(0.2854 0.0652402 -0.360528)
(0.334481 0.046023 -0.306701)
(0.436871 0.0338471 -0.310543)
(0.560275 0.016446 -0.330661)
(0.67566 0.00396605 -0.379899)
(0.788954 -0.00906368 -0.441969)
(0.904127 0.0204391 -0.555087)
(0.994512 0.0493902 -0.684375)
(1.00408 0.0434599 -0.867531)
(0.132448 0.0707422 -0.415743)
(0.208711 0.0914174 -0.385672)
(0.268676 0.119433 -0.344777)
(0.316813 0.0973676 -0.307522)
(0.314903 0.0664679 -0.220923)
(0.400126 0.0460593 -0.210859)
(0.485862 0.0341839 -0.238929)
(0.593643 0.0221844 -0.283206)
(0.719641 0.0436113 -0.349007)
(0.949662 0.116948 -0.672457)
(0.912106 0.0540364 -0.848904)
(0.149444 0.0616473 -0.434131)
(0.197505 0.0603627 -0.248446)
(0.245345 0.0887745 -0.209492)
(0.27895 0.23147 -0.317568)
(0.300222 0.125382 -0.215125)
(0.372131 0.0869843 -0.208042)
(0.461616 0.0613696 -0.233357)
(0.579193 0.0436555 -0.275295)
(0.728134 0.0403359 -0.34363)
(0.932497 0.0402983 -0.733383)
(0.892249 0.0353334 -0.879646)
(0.1178 0.0700922 -0.273706)
(0.205854 0.0469957 -0.246503)
(0.302997 0.14154 -0.194009)
(0.214558 0.229621 -0.188885)
(0.24451 0.19141 -0.201799)
(0.346667 0.137989 -0.2067)
(0.440104 0.097949 -0.232905)
(0.567561 0.0719351 -0.274787)
(0.727027 0.0546197 -0.347048)
(0.921573 0.0513326 -0.748081)
(0.860446 0.0252227 -0.885813)
(0.0923668 0.076393 -0.299477)
(0.0813095 0.0175271 -0.210323)
(0.115166 0.268879 -0.192058)
(0.208144 0.266401 -0.334421)
(0.295929 0.174308 -0.223266)
(0.415931 0.124947 -0.241259)
(0.550413 0.0928441 -0.283343)
(0.708843 0.0620381 -0.358074)
(0.905066 0.0334136 -0.758448)
(0.842708 0.0194235 -0.895297)
(0.0801256 0.18051 -0.285353)
(-0.00222262 0.135593 -0.206632)
(0.0752117 0.260886 -0.217878)
(0.179847 0.300859 -0.366519)
(0.29013 0.202992 -0.237722)
(0.396955 0.154418 -0.253251)
(0.529628 0.11742 -0.293164)
(0.684345 0.0759947 -0.366684)
(0.882266 0.042328 -0.76439)
(0.827272 0.0168643 -0.897702)
(0.0743558 0.304029 -0.270268)
(0.0093612 0.245772 -0.191256)
(0.0732033 0.279786 -0.241932)
(0.170715 0.373912 -0.403717)
(0.276011 0.240097 -0.247556)
(0.369042 0.192721 -0.256919)
(0.499238 0.148974 -0.293239)
(0.651146 0.0944343 -0.362473)
(0.8549 0.00888315 -0.772434)
(0.804165 0.0156201 -0.901902)
(0.0746604 0.423048 -0.270671)
(0.00909099 0.360752 -0.189686)
(0.0875381 0.308667 -0.269159)
(0.21605 0.391852 -0.417425)
(0.385799 0.336656 -0.375464)
(0.479614 0.272098 -0.401034)
(0.629901 0.207602 -0.450411)
(0.733801 0.111695 -0.569455)
(0.845001 0.0356563 -0.778159)
(0.810987 0.0181053 -0.896076)
(0.123872 0.457019 -0.291076)
(0.280646 0.36189 -0.286909)
(0.117324 0.129919 -0.239986)
(0.0829727 0.324348 -0.297991)
(0.171822 0.41076 -0.464759)
(0.337554 0.353704 -0.436609)
(0.447209 0.309347 -0.459939)
(0.576314 0.253843 -0.508634)
(0.684635 0.178824 -0.628707)
(0.789598 0.102042 -0.786303)
(0.769419 0.0291047 -0.903677)
(0.107903 0.456885 -0.585218)
(0.127143 0.348951 -0.365612)
(0.122179 0.290688 -0.363755)
(0.0890698 0.414531 -0.550422)
(0.162911 0.431856 -0.522472)
(0.309767 0.396999 -0.499926)
(0.399167 0.355591 -0.528103)
(0.511102 0.306821 -0.576612)
(0.597005 0.21639 -0.682698)
(0.709714 0.184889 -0.80948)
(0.7201 0.0347878 -0.913185)
(0.145523 0.442259 -0.626773)
(0.157118 0.422391 -0.646228)
(0.096731 0.420799 -0.654739)
(0.0798055 0.450393 -0.60086)
(0.170424 0.501917 -0.601876)
(0.279266 0.474018 -0.605003)
(0.365152 0.444045 -0.632833)
(0.438924 0.391476 -0.67545)
(0.571976 0.310902 -0.763542)
(0.605861 0.215857 -0.85737)
(0.606059 0.0537766 -0.969532)
(0.113472 0.481908 -0.690152)
(0.126122 0.4596 -0.701941)
(0.135622 0.462505 -0.69808)
(0.152427 0.484777 -0.688612)
(0.204159 0.508069 -0.693866)
(0.265574 0.483739 -0.707202)
(0.317863 0.450414 -0.733308)
(0.374424 0.389928 -0.774892)
(0.431349 0.318181 -0.817155)
(0.469488 0.176197 -0.931208)
(0.502535 0.0646041 -0.994839)
(0.112967 0.539114 -0.741292)
(0.125396 0.539335 -0.755333)
(0.133547 0.535616 -0.755883)
(0.154149 0.527328 -0.761322)
(0.190263 0.516562 -0.771425)
(0.227153 0.479724 -0.797233)
(0.268806 0.433782 -0.829565)
(0.302747 0.36798 -0.869877)
(0.358461 0.283788 -0.918562)
(0.382863 0.182091 -0.977377)
(0.40735 0.0662276 -1.04038)
(0.106145 0.562955 -0.824681)
(0.11665 0.560281 -0.837517)
(0.130119 0.551748 -0.841733)
(0.146431 0.537468 -0.85117)
(0.167336 0.514782 -0.870037)
(0.188166 0.475757 -0.890412)
(0.209291 0.427877 -0.916745)
(0.228211 0.359057 -0.949649)
(0.252078 0.2848 -0.985317)
(0.264112 0.170261 -1.04179)
(0.284495 0.0721909 -1.08813)
(0.103089 0.634985 -0.888179)
(0.108014 0.634632 -0.902713)
(0.113045 0.622113 -0.907662)
(0.120128 0.599198 -0.917253)
(0.128411 0.567153 -0.930393)
(0.136019 0.520151 -0.949286)
(0.145875 0.464188 -0.972275)
(0.153462 0.388921 -1.00187)
(0.167444 0.30687 -1.0361)
(0.173023 0.190714 -1.08439)
(0.185408 0.0843504 -1.13176)
(0.125378 0.0875149 -0.432425)
(0.182405 0.085838 -0.423673)
(0.242138 0.0826814 -0.408889)
(0.303757 0.0843091 -0.3996)
(0.379942 0.0771015 -0.397005)
(0.455802 0.0726857 -0.414165)
(0.551547 0.0675615 -0.448486)
(0.622052 0.0624464 -0.503925)
(0.732856 0.0585602 -0.572774)
(0.776051 0.0525253 -0.661897)