/*--------------------------------*- C++ -*----------------------------------*\
| =========                 |                                                 |
| \\      /  F ield         | OpenFOAM: The Open Source CFD Toolbox           |
|  \\    /   O peration     | Version:  v1906                                 |
|   \\  /    A nd           | Web:      www.OpenFOAM.com                      |
|    \\/     M anipulation  |                                                 |
\*---------------------------------------------------------------------------*/
FoamFile
{
    version     2.0;
    format      ascii;
    class       surfaceScalarField;
    location    "40";
    object      phi;
}
// * * * * * * * * * * * * * * * * * * * * * * * * * * * * * * * * * * * * * //

dimensions      [1 0 -1 0 0 0 0];
oriented        oriented;


internalField   nonuniform List<scalar> 
104699
(
0.0164336
0.00792551
-0.00740734
0.0240959
0.0072322
-0.00638517
0.0343403
0.00363331
-0.0053834
0.0103745
0.00038617
-0.00201929
0.0110275
0.0103929
0.0110611
0.000514898
0.000452934
0.000616608
0.0115804
0.00110107
-0.00019436
0.0152178
0.00125719
-0.000843297
-0.0135217
-0.0168455
0.0184854
0.00134176
-0.000866684
-0.0203249
0.0222301
0.00143086
-0.00121252
-0.0244008
0.0268404
0.00149362
-0.00180517
0.144841
0.00302736
-0.0340445
0.00533868
0.00267075
0.00412943
-0.0295289
-0.030002
-0.0288468
-0.0291538
0.0207995
-0.0316215
0.0157299
0.00892017
-0.00828733
0.0229758
0.00779372
-0.00780743
0.00700839
0.00415706
-0.0050755
0.00677906
0.00699724
0.00674282
0.00805105
-0.000130193
-0.000526324
0.0126781
-0.00217373
-0.000505896
0.000146072
-0.0101445
0.0167126
-0.000773915
-0.0149701
-7.97457e-06
-0.000198204
-0.000193535
-1.70542e-05
-0.000551854
-0.0182458
0.0198666
-0.00107192
0.00016411
-2.90036e-05
-1.65047e-05
0.000157263
-0.000824767
-0.0216729
0.0235639
-0.00147478
0.000262713
2.78447e-05
3.76403e-05
0.000258925
-0.00100337
-0.0256985
0.0273633
-0.00201212
0.000671812
0.000256275
0.000256555
0.00065608
-0.00149338
-0.0284586
0.027182
-0.00230853
0.00165408
0.00158946
0.00168228
0.00168675
0.00556833
-0.0383501
-0.02832
-0.0259725
-0.0275555
-0.0250581
0.00496731
0.00465939
0.00445759
0.0153432
0.0109011
-0.00888543
0.0213386
0.0101623
-0.0083641
0.00600789
0.00937553
-0.00759052
0.00578744
0.00609069
0.0058246
0.00615853
0.000217412
-0.000510461
0.000142398
0.000634933
-0.0015102
0.00146801
-0.000618475
2.57394e-05
0.000112392
-0.000534564
0.000587546
-0.000161283
-4.09106e-06
1.88775e-05
-0.000608228
0.000609233
-9.32378e-06
-1.05607e-05
1.74158e-05
-0.000715425
0.000721099
-8.86279e-06
-1.42282e-05
-1.11688e-05
-0.000886843
0.000909327
7.32557e-06
-1.86419e-05
-0.000831838
-0.00260844
0.00355926
0.00304942
-0.000667625
-0.00082674
-0.00084173
-0.0008323
-0.0180923
0.0242319
0.00483074
-0.00540206
0.0120744
0.0156448
-0.00838238
0.0180272
0.00317453
-0.00828545
0.00307694
0.00312993
0.00311354
0.00514894
0.00344194
-0.00697589
0.00489378
0.00522939
0.0049636
0.00354729
0.00349392
0.00365961
-0.00106297
0.00457103
0.0020946
-0.000453751
8.71463e-05
-0.000909012
0.000778287
6.30413e-05
-1.9474e-05
-0.00191959
-0.000317369
0.00166764
0.00155135
-0.00020013
-0.000313574
-0.000243763
-0.00022457
-0.0146805
-0.0040187
0.021867
0.00287301
-0.00604078
0.00326331
0.0045631
-0.00799418
0.00343473
0.00333104
0.00358167
0.00473227
0.00451145
0.0046457
0.00359158
0.0035068
-0.00066058
-0.00404855
0.00443215
0.00357626
-0.000517971
-0.00332312
-0.00421483
0.00335138
0.00454509
-0.000358574
-0.000585976
-0.000504108
0.000381284
0.00072558
-1.6794e-05
-0.000938634
-0.000314588
0.00146932
0.00079925
-0.000251811
-0.000313342
-0.000227192
-0.000223002
-0.013789
-0.00208805
0.0209076
0.00141969
-0.00645027
0.002461
0.00476591
-0.000557487
0.00374773
-0.000550646
-0.00376912
-0.0029045
0.000894996
0.000842593
0.000835949
0.000902954
-0.00489157
0.00521215
-0.000446069
0.000798015
0.000808412
0.00124434
0.00119837
-0.00392368
-0.00412921
-0.00586447
0.00276646
0.00752023
-0.000293041
-0.00114377
-0.000362442
0.000258723
0.00126131
-1.38273e-05
-0.000502536
-0.000301494
0.00142742
0.000428323
-0.000314806
-0.000300645
-0.000219184
-0.000217081
-0.0134759
-0.000990101
0.0204646
0.000664603
-0.00666323
0.00182697
0.0062292
-0.000592724
-0.00534558
-0.00098155
-0.000268968
0.000118072
0.00119627
-6.38343e-05
-0.000695379
-0.00896559
0.00189876
0.00948205
-5.04929e-05
-0.000543445
-0.000644696
-0.000481235
-0.00161634
-0.000162407
0.000126145
0.00165401
-1.42252e-06
-0.000264209
-0.000292052
0.00141657
0.000221697
-0.000361503
-0.000291344
-0.000215314
-0.000213847
-0.0133474
-0.000448885
0.0202759
0.000289992
-0.00676955
-0.00750632
0.00140047
0.0089315
-0.000701454
-0.0016807
-6.66952e-05
7.80872e-06
0.00178926
-4.96839e-05
-0.00130356
-0.0096803
0.00360723
0.0100318
-1.9449e-05
-0.00126544
-0.000731761
-0.000638587
-0.00183934
-0.000254989
0.000192717
0.00187179
2.98151e-05
-0.000126695
-0.000285529
0.00141646
0.000101336
-0.000393122
-0.000285108
-0.000214137
-0.000213206
-0.0133093
-0.000178893
0.0202104
9.69933e-05
-0.00681919
-0.0103969
0.00145769
0.0118426
-0.000755072
-0.00215011
-0.000101776
5.16257e-05
0.00225108
-5.08283e-05
-0.00112266
-0.0106404
0.0029162
0.0116799
-0.000412008
-0.00101963
-0.000746059
-0.000655361
-0.00212293
-0.000130108
0.000104704
0.0021527
-4.36665e-06
-4.1871e-05
-0.00028132
0.00142395
2.43373e-05
-0.00041552
-0.000280722
-0.000214685
-0.00021417
-0.0133298
-4.02877e-05
0.0202082
4.2384e-06
-0.00684236
-0.0132434
0.00194104
0.0143011
-0.000811581
-0.00271727
-0.000222283
0.000151178
0.00286027
-7.18927e-05
-0.000451534
-0.0130129
0.000628704
0.014136
-0.000984353
-3.20459e-05
-0.000334852
5.09175e-05
-0.00238788
3.79063e-05
-1.11419e-05
0.00240965
-4.85367e-05
2.66734e-05
-0.000279685
0.00142074
-4.35473e-05
-0.000416468
-0.000280154
-0.000213994
-0.000213562
-0.0133114
3.06783e-05
0.0202049
-8.45623e-05
-0.00683959
-0.0148087
0.0031895
0.0146162
-0.000858083
-0.00273083
0.0127257
-0.000897163
-0.00298923
-0.00273416
-0.0029953
0.00111382
0.000977778
0.00100715
0.00108559
-0.00456334
-0.00140975
-0.000152841
-0.000172251
0.0018282
-9.33774e-05
0.00178293
-0.0146658
-0.00107106
0.0148952
-0.000941315
-0.00260262
0.000139604
-9.16833e-05
0.00261946
-6.47657e-05
0.000100111
-0.000282756
0.00141234
-0.000121459
-0.000400611
-0.000283223
-0.000212199
-0.000212204
-0.0133081
0.000159659
0.0202319
-0.000258978
-0.00682448
0.00133496
0.0751347
-0.0139229
-0.0152657
-0.0154129
-0.0149715
-0.0151
0.00254522
0.00138719
0.0026299
-0.013696
0.00140779
0.0147814
-0.00115822
-0.0132341
-0.00107085
0.000204571
0.0152422
-0.0011419
-0.0152667
0.000118726
0.0160482
-0.00106437
0.000164209
-0.00275101
4.07274e-05
-2.83064e-05
0.00281219
-7.36011e-05
0.000203761
-0.000287783
0.00141358
-0.000235328
-0.000380808
-0.000288322
-0.000212263
-0.000212835
-0.0133694
0.000390256
0.0203352
-0.000565371
-0.00679072
0.0137866
0.0846664
-0.0149952
0.00859921
0.0853089
-0.0156663
-0.016204
-0.0164235
-0.0158044
-0.0160232
0.000278484
0.0892325
-0.0155725
0.00207536
0.000377472
0.00215817
-0.0175572
-0.0177862
-0.017192
-0.0174149
-0.0166763
0.000776716
0.017355
-0.00117693
-0.00305658
-0.000167465
0.000138214
0.00315997
-7.4154e-05
0.000372642
-0.000292357
0.00144455
-0.000435956
-0.000371634
-0.000290731
-0.000213751
-0.000212772
-0.0135479
0.000784224
0.0205505
-0.0010598
-0.00672704
0.00977276
0.101317
-0.0181075
0.0109678
0.102492
-0.0183779
0.00266457
0.103116
-0.017658
0.004553
0.00274239
0.0047827
-0.0182628
0.00322832
0.0190257
-0.00132662
-0.00351341
-0.000773873
0.00070356
-6.19372e-05
0.00364566
0.000781197
-0.00031495
0.00172251
-0.000909054
-0.000417141
-0.000326851
-0.000277058
-0.000258658
-0.0138126
0.00129356
0.0207472
-0.0016483
-0.00657986
0.0126476
0.116665
-0.0196732
0.0185225
0.116711
-0.0200941
0.00586242
0.115352
-0.0194618
0.00730576
0.00540594
0.00717428
-0.0190837
0.00664352
0.0199111
-0.00160845
-0.00366225
0.0168707
-0.00283741
-0.00353853
-0.00361427
-0.00344078
0.00203988
0.00199064
0.00216707
0.0021254
-0.00810045
-0.000403738
-0.00254686
0.00241542
-0.000477115
0.00215054
-0.000364311
-0.00040212
-0.000371821
-0.000253051
-0.00195651
0.00190181
-0.000549775
0.00161977
-0.000253434
-0.00025525
-0.000253572
-0.000212996
-0.0018673
0.00192539
-0.000560786
0.00135598
-0.000211602
-0.000214626
-0.000214081
-0.000142541
-0.00220012
0.0024011
-0.000576419
0.000927578
-0.000126813
-0.000146745
-0.000136051
0.000390635
-0.00298132
0.0133452
0.00275723
-0.00588668
0.0003105
0.000401987
0.000358822
-0.00287146
-0.0029657
-0.00285919
0.0065335
-0.0540457
-0.0171092
-0.0175263
-0.0163247
-0.0165736
0.00142498
0.00124444
0.000296754
0.00067135
0.0121253
0.142711
-0.0298377
0.0183942
0.141468
-0.031026
0.0247556
0.138821
-0.0298302
0.00467807
0.12688
-0.037315
-0.022124
-0.0218003
-0.0215803
-0.020988
0.00648738
0.00429556
0.00622263
-0.0184786
0.00571342
0.020123
-0.00267971
-0.0146192
-0.00680728
0.00688825
0.0176634
-0.00312513
-0.0126045
-0.00706462
0.00711426
0.0161663
-0.00361146
-0.0110062
-0.00742096
0.00800226
0.0144243
-0.00399941
-0.00879366
-0.00886259
0.010745
0.0117028
-0.00479163
0.0663332
0.0547728
-0.0585836
-0.00641848
-0.00487958
-0.005801
-0.00453865
-0.0120158
-0.00891225
-0.0113375
-0.00861905
0.0397514
-0.0584476
0.0106865
-0.0331735
0.01337
-0.0338628
0.0188161
-0.035133
0.0238626
-0.0361937
0.0199997
-0.0452887
-0.0239356
-0.0232252
-0.023498
-0.0226023
0.016908
-0.0462976
-0.0223628
-0.0218771
-0.0218682
-0.0212256
0.018017
-0.0489729
-0.0208904
-0.020457
-0.0203432
-0.0197004
0.0217737
-0.0505706
-0.0190166
-0.0184528
-0.018531
-0.0176773
0.0271184
-0.0524661
-0.01607
-0.0153948
-0.0157249
-0.0146781
0.053163
-0.0573094
-0.0581797
0.0159212
0.00820734
-0.0145878
0.0241467
0.00728722
-0.0133921
0.0331071
0.0053675
-0.0112183
0.0487464
-0.000419402
-0.00877139
0.0145167
-0.000659732
-0.00655796
0.000710179
0.000145977
0.000178272
0.00041666
0.00135932
0.000695352
0.00177175
0.0151059
0.0144572
0.0150511
0.00174257
0.014903
0.00157669
-0.0015943
0.00179915
-0.0161603
0.0174351
0.00136107
-0.002319
0.00246571
-0.019116
0.0205862
0.0014137
-0.00322554
0.00367664
-0.0224129
0.0245128
0.00158149
-0.00523058
0.123907
0.00256136
-0.0545862
0.00404262
0.00194037
0.00323237
-0.0268867
-0.0270837
-0.0263093
-0.026433
0.0180109
-0.0500383
0.0159098
0.00845649
-0.0160082
0.022989
0.00748096
-0.0150804
0.0324037
0.00358324
-0.012706
0.0104703
-0.000303127
-0.0114754
0.010001
0.0104494
0.00937965
-0.000396996
-0.000164297
-0.000502011
0.00106376
0.00140575
0.000804127
0.00125208
0.00102885
0.0120835
-0.00189689
-0.00140489
0.00146376
0.0158868
-0.00184249
-0.0142345
-0.000184839
8.93114e-06
-1.40182e-07
-0.000189357
-0.000908229
0.00199359
-0.017341
0.0187634
-0.00273716
-6.16924e-05
0.000123783
9.10875e-05
-9.15428e-05
-0.000740494
0.0027605
-0.0203857
0.0219867
-0.0038254
-1.06736e-05
0.000221414
0.000170537
-5.84352e-05
-0.000858928
0.00384606
-0.0237587
0.0251256
-0.00532009
0.000256341
0.00063881
0.000568644
0.000178435
-0.00153511
-0.025753
0.004984
0.0242628
0.00594993
-0.00688243
0.00506756
-0.0608998
-0.0241366
-0.0219081
-0.0237065
-0.0216969
0.00449684
0.00365918
0.00359251
0.0149885
0.00973388
-0.0167125
0.02098
0.00912587
-0.0160006
0.00582498
0.00803275
-0.0145326
0.0056973
0.00624319
0.00570706
0.000925109
0.00616084
-4.49127e-05
-0.00151919
8.0192e-05
0.00046897
-0.0015752
0.00162159
-0.000507359
-8.81969e-05
-2.71547e-05
0.000316822
-0.00274383
0.00299641
-9.02655e-05
-0.000101402
-0.000110392
-0.000117192
-9.38868e-05
5.60184e-06
-3.46878e-05
-1.8202e-08
4.88219e-05
-0.00322379
0.00011071
0.00332461
-0.000364124
-1.28097e-05
-3.19215e-05
-1.41297e-05
-3.24818e-05
7.36636e-05
5.07158e-05
7.07282e-05
7.374e-05
-0.00376166
0.000106797
0.00391879
-0.000517819
-1.23041e-05
-3.57805e-05
-1.31695e-05
-3.74866e-05
0.000103462
7.5916e-05
9.95141e-05
0.000128565
-0.00463659
-0.000104888
0.00493612
-0.00079574
2.56499e-05
-1.43246e-05
1.99631e-05
-1.68753e-05
0.000164763
0.000133738
0.000159626
0.00110201
-0.00437115
-0.00212384
0.00389745
0.00269522
-0.00119968
-0.0155087
0.00883437
0.0179019
0.00470221
-0.0108622
0.0122996
0.0137865
-0.0162981
0.018041
0.00284157
-0.0159817
0.00282671
0.00262727
0.00278516
0.0050048
0.00327561
-0.0140922
0.00479837
0.00515397
0.00489411
0.00344726
0.00314011
0.00347571
0.000854967
-0.000899366
0.00442879
0.00196554
-0.00134517
7.41734e-05
0.000110174
-0.000902703
0.000775569
3.69654e-05
-9.41953e-05
0.00150925
-0.00013993
-0.00196664
0.00122373
0.00163541
-0.00185653
-0.000115479
-0.000158886
-0.000130917
-0.010667
0.00990097
-0.00397784
0.0141158
0.00291956
-0.0122914
0.00341798
0.00405736
-0.0158475
0.00352451
0.00331185
0.00362405
0.00417121
0.00394297
0.00401517
0.00120416
0.00373294
0.00317421
-0.00185181
0.000959407
-0.00410624
0.00442692
0.00345028
-0.00145479
0.000716305
-0.00324049
-0.00413
0.00323841
0.00449427
-0.00107855
6.12788e-05
-0.000558421
-0.000485455
0.000364691
0.000702936
-8.50458e-05
0.00165696
-0.000874458
-9.18125e-05
0.000849295
0.000725653
-0.0019829
-8.92617e-05
-9.61972e-05
-9.72818e-05
-0.00886542
0.0106114
-0.00215591
0.0122252
0.001502
-0.0133173
0.00108154
0.00251003
0.00426362
-0.0016913
0.00110833
0.0039369
-0.0016936
-0.00336578
-0.00302434
0.000781264
0.000737867
0.00079214
0.000727176
-0.00508952
0.000882316
0.00524909
-0.00130771
0.000816674
0.000798272
0.00127155
0.00125964
-0.00388036
-0.00401585
0.000612851
-0.00586675
0.00262919
0.00755502
-0.000914507
4.75018e-05
-0.00113543
-0.000328997
0.000226856
0.00125658
-6.6526e-05
0.00179444
-0.000431316
-7.66267e-05
0.000714995
0.000360508
-0.00212122
-7.43649e-05
-8.33641e-05
-8.30512e-05
-0.00801734
0.0110255
-0.00106486
0.0112466
0.000733636
-0.0139235
0.0012023
0.00184294
0.0057209
-0.0018388
-0.00481041
0.000251984
-0.000856719
-0.00030623
0.000181649
0.00105679
-0.000327485
-0.000532631
0.000469289
-0.00906764
0.00106493
0.0100965
-0.000869918
-0.000309389
-0.000530701
-0.000320495
2.72399e-05
-0.00161414
-8.6827e-05
6.21901e-05
0.00165846
-4.69287e-05
0.00188654
-0.000212205
-6.72634e-05
0.000649665
0.000175318
-0.00221554
-6.60429e-05
-7.52885e-05
-7.51814e-05
-0.00758586
0.0112547
-0.000506908
0.0107678
0.000339326
-0.014269
0.0013504
-0.00703493
0.00131592
0.00847094
-0.00197779
0.000174736
-0.00158865
-5.04491e-05
-4.05379e-06
0.00170596
-0.000237551
-0.000167672
0.000761893
-0.0107968
0.000284241
0.0113748
-0.00116484
-3.18136e-05
-0.000197602
-6.22336e-05
2.43897e-05
-0.00186062
-8.65421e-06
1.20692e-05
0.00188862
-5.58118e-05
0.00194208
-9.63421e-05
-6.22276e-05
0.000616761
7.54454e-05
-0.00227199
-6.16583e-05
-7.10256e-05
-7.10411e-05
-0.0073806
0.0113732
-0.000218404
0.0105532
0.000126313
-0.0144536
0.00144962
-0.00992036
0.0013764
0.0113485
-0.00210229
0.000201605
-0.00209316
-8.57698e-05
4.13292e-05
0.00219884
-0.000262853
-0.000201651
0.00116241
-0.0119873
0.000212107
0.0127559
-0.00158645
-7.74384e-05
-0.000214491
-6.30231e-05
9.11423e-05
-0.00209848
2.16565e-05
-1.00477e-05
0.00212004
-0.000124318
0.0019783
-2.73035e-05
-5.99008e-05
0.000603013
1.38272e-05
-0.00230979
-5.97086e-05
-6.91835e-05
-6.92478e-05
-0.00731622
0.0114328
-5.64229e-05
0.0104892
-1.26473e-06
-0.0145481
0.00154655
-0.0127164
0.00188459
0.0137043
-0.00223026
0.00025812
-0.00266508
-0.00021227
0.000143667
0.00279849
-0.000322926
-6.97936e-05
0.00174045
-0.0135826
-0.000264858
0.0141011
-0.00227868
0.000226087
-0.000109987
0.000238246
0.000182716
-0.00232317
6.30965e-05
-4.13482e-05
0.00234275
-0.00022405
0.00197605
2.57136e-05
-5.92875e-05
0.000601926
-4.0176e-05
-0.00230739
-5.93367e-05
-6.87824e-05
-6.87151e-05
-0.00733395
0.0114203
6.18016e-05
0.0105077
-0.000136036
-0.0145197
-0.0141104
0.00163281
0.00313162
0.0138361
-0.00235468
0.00167397
-0.00264215
0.0119687
-0.00237399
-0.00288005
-0.00262736
-0.00286862
0.00110092
0.000994696
0.00108728
0.000999296
-0.0044327
-0.00124871
-0.000223568
0.000447574
-0.000124489
0.00170039
-0.000551214
0.00177218
0.00177381
-0.0142463
-0.00107824
0.0142914
-0.00251291
0.000244062
-0.00251702
0.000138858
-9.35216e-05
0.00252799
-0.000300379
0.00195681
9.18284e-05
-6.02437e-05
0.000613163
-0.000111332
-0.00229061
-6.05307e-05
-6.95794e-05
-6.95069e-05
-0.00746539
0.0113733
0.000227204
0.0106408
-0.000344709
-0.0144312
0.00144658
0.0690114
-0.0256195
-0.014323
-0.0144381
-0.0140389
-0.0141518
0.00261126
0.0013884
0.00254704
-0.0127914
0.00218996
0.00150836
0.0137229
-0.00318328
-0.0123677
-0.00114519
0.00220078
0.000309883
0.0141998
-0.00319754
0.00204534
-0.0145719
0.00021985
0.0152018
-0.00293178
3.66532e-05
0.000287849
-0.00266146
1.16488e-05
-8.34924e-06
0.00272515
-0.000354844
0.00193604
0.000198384
-6.28464e-05
0.000642616
-0.000234874
-0.00227113
-6.36439e-05
-7.23848e-05
-7.21632e-05
-0.00776106
0.0112891
0.000494757
0.0109468
-0.000711428
-0.0142582
0.0132966
0.0769282
-0.0278868
0.00882933
0.0773209
-0.0290891
-0.0149557
-0.0151561
-0.0145849
-0.0147343
0.000578286
0.0811048
-0.029012
0.00237815
0.000565612
0.00226446
-0.0162351
-0.0164911
-0.0158258
-0.0160705
0.00225613
-0.0157829
0.00107887
0.0162764
-0.00325022
0.000289729
-0.0029726
-0.000249814
0.000209516
0.00308427
-0.000361103
0.00193951
0.000453668
-6.55012e-05
0.000745609
-0.000574563
-0.00227646
-6.92105e-05
-7.4693e-05
-7.83586e-05
-0.00832267
0.0111769
0.000983551
0.011509
-0.00138178
-0.013965
0.00989407
0.0899926
-0.032751
0.0119466
0.0903842
-0.0334937
0.00304173
0.0915416
-0.0324383
0.00513947
0.00298448
0.00512434
0.00252102
-0.0171803
0.00381617
0.017451
-0.00356617
-0.00338822
0.000208725
-0.00101295
0.000931103
-0.000187778
0.00344913
0.0011077
-0.00017485
0.00183904
0.00139635
-0.00114453
-0.00205295
-0.000368804
-0.000212469
-0.000389481
-0.00965102
0.0111735
0.00168133
0.0125084
-0.00159155
-0.0141207
0.0126693
0.101667
-0.0356962
0.0183126
0.10133
-0.0366828
0.0271984
0.0998029
-0.0366089
0.00819113
0.0917462
-0.0409279
-0.0186747
-0.0186993
-0.0180272
-0.0179103
0.00841004
0.006446
0.00778255
0.00359577
0.0042178
0.00534569
0.00570261
-0.0155943
0.00422524
0.00929184
0.0159732
-0.00570487
-0.00222537
0.000943217
0.00908124
0.0123176
-0.00761101
-0.00196328
-0.00236372
-0.00221088
-0.00957822
0.00122482
0.00110702
0.00127856
-0.00162284
0.00146669
-0.00869171
0.00840893
0.0100509
-0.00937038
-0.00145126
-0.00179899
-0.0017468
0.00160734
0.00153794
0.00161015
-0.00132877
0.0016151
-0.00851327
0.00886793
0.00844064
-0.010053
-0.00116662
-0.00149644
-0.00144589
0.0017135
0.0016555
0.00171132
-0.000861042
0.00181881
-0.009586
0.0106391
0.00581025
-0.0109675
-0.000630292
-0.00104579
-0.000856286
0.00192196
0.00183545
0.00192132
0.000113037
-0.0116293
0.010463
0.0109183
0.00298783
-0.0128528
0.00552524
-0.0800329
0.000836009
0.00102077
-0.000686617
-0.000290018
-0.0118188
-0.0117204
-0.0125123
-0.0122589
0.0117108
0.116771
-0.048323
0.0159945
0.115775
-0.0497553
0.0224736
0.112897
-0.0494034
0.0270527
0.104369
-0.0545171
0.027676
0.0940844
-0.0552828
-0.017392
-0.0159535
-0.0171242
-0.016178
0.00534101
0.00595321
0.00766262
0.00826606
0.0277231
0.0838957
-0.0606022
-0.0141999
-0.0134355
-0.0139497
-0.0133712
0.00635156
0.00690968
0.00891593
0.00943871
0.0290637
0.0744907
-0.0647466
-0.0119803
-0.0111674
-0.0117661
-0.0112439
0.0072579
0.00782362
0.00976252
0.0102289
0.0341209
0.0641786
-0.0689683
-0.0101179
-0.00899536
-0.00990031
-0.00919896
0.00801444
0.00872997
0.010328
0.0108726
0.0383508
0.0518909
-0.0739121
-0.00720437
-0.00542626
-0.00705255
-0.0059205
0.00957525
0.0101238
0.0116084
0.0120875
0.0457285
0.034309
-0.0831512
-0.00504724
-0.00291454
-0.00527968
-0.00387766
0.0218269
-0.0846323
0.0101003
-0.0533773
0.0121488
-0.0545613
0.0148992
-0.0558262
0.0171472
-0.057666
0.0177308
-0.0640208
0.0181553
-0.0667777
0.0189479
-0.0704456
0.0216614
-0.0735781
0.0242337
-0.0770535
0.0350157
-0.0834479
-0.0862798
0.0157692
0.00820327
-0.0216173
0.0237386
0.00753987
-0.0204003
0.0337826
0.00539732
-0.0181685
0.048571
0.00135952
-0.0164482
0.0651897
-0.000457637
-0.0143762
0.000192757
-0.00027815
0.000195971
0.0811415
-0.000233625
-0.017285
0.000682633
-0.000266399
0.000667143
0.00153135
0.00251679
0.00184649
0.00304297
0.0953589
0.000103859
-0.0236808
0.00119115
2.63e-05
0.00117806
0.00299788
0.00418504
0.00350231
0.00475181
0.110551
0.000180602
-0.0311415
0.00156191
3.08432e-05
0.00151124
0.00424585
0.00568985
0.00484499
0.00637969
0.119001
0.00153025
-0.0425878
0.00326003
0.00113658
0.00323333
0.00731586
0.00859851
0.00808282
0.00946398
0.118728
0.00245419
-0.0574537
0.0042762
0.00155071
0.00328975
0.0143023
-0.0589712
0.015776
0.00810171
-0.0232435
0.0228478
0.00734218
-0.0219545
0.0318623
0.00383159
-0.0201548
0.0100908
4.13878e-05
-0.0172512
0.00972317
0.00981362
0.00949123
-0.000169548
0.000159235
-0.000152297
0.00158891
0.0115115
-0.00128409
-0.00218318
0.0019234
0.0147066
-0.000882476
-0.00260852
-0.0133726
0.00319351
-0.0160841
0.0173435
-0.000430923
-0.00391821
0.00453601
-0.0188254
0.0201034
-0.000259691
-0.00537371
0.00637634
-0.0214955
0.0228492
0.00111376
-0.00731354
-0.0234767
0.00854149
0.0223201
0.00377655
-0.00870728
0.00328641
-0.072409
-0.0222098
-0.0216289
-0.0224497
-0.0217947
0.00328953
0.00223497
0.00195589
0.0150914
0.00871164
-0.0239747
0.0212039
0.00840986
-0.0231808
0.00612343
0.00751911
-0.0207565
0.0056603
0.00623862
0.00571799
0.00210375
0.0065413
0.000193324
-0.00267356
0.000734719
-0.00114405
0.00184457
-0.00766898
0.00199424
0.00206039
0.00195877
0.00207889
-0.000471462
-0.000462869
-0.000485232
-0.000438984
0.000250166
-0.00251349
0.000336297
0.00264521
-0.000419679
-0.000298506
0.000595435
-0.00292496
0.000201906
0.00300483
-0.000230869
-0.000646342
0.000839512
-0.00340686
0.000183414
0.0035302
-0.00024748
-0.00089878
0.00120173
-0.00413084
-5.20742e-05
0.00433906
-6.83384e-05
-0.00128954
-0.0042836
0.00173347
-0.00138911
0.00186625
-0.00178574
0.00385874
-0.0153845
0.0124993
0.0159074
0.00382004
-0.0135559
0.0128238
0.0119269
-0.0239008
0.0187347
0.00250253
-0.0232504
0.00255831
0.00220347
0.00250325
0.00521729
0.00305568
-0.0208963
0.00499547
0.0053028
0.00515085
0.00326987
0.00279872
0.00326717
0.00185856
-0.000954964
0.00479795
0.00186704
-0.00235133
0.000176956
0.000178972
-0.00100643
0.000875705
-2.64035e-05
-0.000198803
0.00251779
-0.000266619
-0.00218645
0.00139063
0.00177714
-0.00260888
-0.000220886
-0.00014738
-0.000255336
-0.00934275
0.0139797
-0.00398389
0.0112209
0.00310106
-0.0149751
0.00355766
0.0034755
-0.0236456
0.00368022
0.00340527
0.00377282
0.00352594
0.00335009
0.0033827
0.00246212
0.00391211
0.0027944
-0.00310847
0.00194361
-0.0042944
0.00462615
0.0032485
-0.00246821
0.00145842
-0.00307134
-0.00432595
0.00352459
0.00427216
-0.00185793
0.000162578
-0.000478649
-0.000574061
0.000447583
0.000626459
-0.000183928
0.00272013
-0.00091971
-7.16008e-05
0.000674573
0.000741548
-0.00292123
-6.64316e-05
-7.79975e-05
-7.92841e-05
-0.00672401
0.0152442
-0.0023385
0.008666
0.00164803
-0.0164957
0.00229712
0.00258653
0.0036352
-0.00293695
0.00228373
0.00420047
-0.00288481
-0.00291848
-0.00320895
0.00064999
0.000612029
0.000661821
0.000604155
-0.00536305
0.00173549
0.00545222
-0.00217507
0.00080768
0.000766193
0.00124697
0.00124787
-0.00371835
-0.0041703
0.00121415
-0.00563178
0.00282997
0.00727764
-0.00151973
0.000122803
-0.00107914
-0.000365387
0.000259772
0.0011996
-0.000137661
0.0028789
-0.000421581
-5.33861e-05
0.000517531
0.00035064
-0.00309172
-5.02171e-05
-6.51583e-05
-6.49985e-05
-0.00557914
0.0159924
-0.00116983
0.00730964
0.000805144
-0.0173582
0.00250276
0.00189519
0.00504837
-0.00319266
-0.00413705
0.000522094
-0.000697246
-0.000344929
0.000246793
0.000866646
-0.00059337
-0.000468466
0.00121952
-0.00866877
0.00103445
0.00959122
-0.0015889
-0.000297834
-0.000503507
-0.000317759
0.000113133
-0.00156017
-9.10034e-05
7.31074e-05
0.00159874
-0.00013382
0.00298548
-0.000199113
-4.18947e-05
0.000449065
0.000160662
-0.00320341
-4.06123e-05
-5.50579e-05
-5.51116e-05
-0.00503476
0.0164278
-0.000549065
0.0066401
0.000361082
-0.0178452
0.00261536
-0.00637036
0.00132425
0.00782236
-0.00326677
0.000420463
-0.00141513
-5.64946e-05
-1.65636e-05
0.00155612
-0.000488393
-0.000120376
0.00151028
-0.0101714
0.000237925
0.0107578
-0.00192891
-8.97308e-05
-0.000139634
-5.60206e-05
0.000151119
-0.00177635
-1.73281e-05
2.22285e-05
0.00179947
-0.000179149
0.00304822
-8.6632e-05
-3.74486e-05
0.000420472
6.79524e-05
-0.00327223
-3.66127e-05
-5.21088e-05
-5.16112e-05
-0.004788
0.0166631
-0.000225346
0.00634151
0.000117101
-0.0181083
0.00274108
-0.0092664
0.00136976
0.0106757
-0.00336671
0.000448777
-0.00195617
-9.56448e-05
4.59267e-05
0.00206406
-0.000506956
-0.000148742
0.00197825
-0.0114344
0.000199619
0.0121584
-0.00241269
-7.57761e-05
-0.000202053
-6.26563e-05
0.00023498
-0.0019958
1.20033e-05
6.38141e-07
0.00201156
-0.000263389
0.00309528
-1.61183e-05
-3.31163e-05
0.000411536
7.70357e-07
-0.00333116
-3.31753e-05
-4.68463e-05
-4.71685e-05
-0.00474039
0.0167731
-2.98337e-05
0.00626483
-4.90817e-05
-0.0182186
0.00289279
-0.0120081
0.00188123
0.0129495
-0.00352597
0.000527428
-0.00252303
-0.000221696
0.00014663
0.00265773
-0.000587073
-3.48799e-05
0.00279245
-0.0128814
-0.000114399
0.0132835
-0.00332227
0.000202807
-0.00012412
0.000198246
0.000358813
-0.00219536
4.01557e-05
-1.98863e-05
0.00221138
-0.000395105
0.003096
4.43617e-05
-3.45187e-05
0.000412197
-5.89468e-05
-0.00332695
-3.4851e-05
-4.88417e-05
-4.84484e-05
-0.00483259
0.0167169
0.000138183
0.00635335
-0.000249242
-0.0181266
-0.0132852
0.0030498
0.00310464
0.0129588
-0.00369324
0.00304769
-0.00250372
0.0111919
-0.00366186
-0.00272802
-0.00248799
-0.00271897
0.00111699
0.00101945
0.00110274
0.00101451
-0.00439271
-0.00112687
-0.000308069
0.000844905
-3.32997e-05
0.00153969
-0.000916369
0.00133623
0.00322269
-0.013351
-0.000671326
0.013361
-0.0038976
0.000471527
-0.00237788
7.51417e-05
-3.95598e-05
0.00239208
-0.000521316
0.00309984
0.00012732
-3.03126e-05
0.000432107
-0.000159243
-0.00336184
-2.95701e-05
-4.00533e-05
-3.82488e-05
-0.00514102
0.0165683
0.000385319
0.00666875
-0.000563946
-0.0179174
0.00161361
0.0626548
-0.0354487
-0.0133064
-0.0133959
-0.0129944
-0.0130888
0.00269965
0.00147982
0.00252511
-0.0117934
0.00413186
0.00173324
0.0125324
-0.00499054
-0.0112505
-0.00139756
0.00415047
0.000622042
0.0128838
-0.00500831
0.00380796
-0.013496
0.000703605
0.0139165
-0.00458786
-0.000344264
0.000551685
-0.00251719
-0.000124529
0.000107198
0.0025859
-0.000603071
0.00314
0.00032996
-1.67324e-05
0.000500859
-0.000401413
-0.00344684
-2.1236e-05
-3.79152e-05
-4.66822e-05
-0.00578901
0.0162713
0.000769697
0.00734631
-0.00112219
-0.0174761
0.0129939
0.0689039
-0.0388067
0.00929782
0.0689472
-0.0406852
-0.0135631
-0.0137055
-0.0131721
-0.0132144
0.00104256
0.0717057
-0.0405095
0.0027286
0.000825927
0.00246958
-0.014641
-0.0148567
-0.0141508
-0.0143286
0.00432384
-0.0142742
0.0017404
0.0146767
-0.0054242
0.000562257
-0.00277056
-0.000498423
0.00046546
0.00286729
-0.000626021
0.00313438
0.000788596
-9.28226e-05
0.000864901
-0.00095836
-0.0033336
-0.000119561
-0.000105745
-0.00017778
-0.00708367
0.0158284
0.00151001
0.00850964
-0.00174973
-0.0170147
0.00982742
0.0791467
-0.0445066
0.0114928
0.0794184
-0.0456303
0.00320184
0.0801246
-0.044609
0.00497476
0.00265171
0.00441645
0.00505917
-0.015076
0.00438983
0.0150572
-0.00622831
0.00468286
-0.00306646
0.0139768
-0.00681423
-0.0030124
-0.00300339
-0.00291059
0.00150443
0.00167129
0.00134537
0.00155489
-0.00592858
0.00130839
-0.000417671
-0.00223723
0.00215541
0.00201949
-0.00155753
-0.000385848
-0.000453927
-0.000431091
0.00211398
-0.000336176
-0.00172208
0.0016697
0.00159719
-0.00225003
-0.000316842
-0.000378598
-0.000377142
0.00220726
-0.000317131
-0.00169244
0.00174718
0.00142568
-0.00236458
-0.000294086
-0.00035712
-0.000354768
0.00228476
-0.000247717
-0.00210802
0.00230574
0.00103946
-0.00249357
-0.000211581
-0.000285651
-0.000283419
0.00298779
0.000718965
-0.00240944
0.0104842
0.000862269
-0.0154011
0.000618183
0.000152694
0.000274138
0.00304917
0.00312374
0.00309171
-0.00232109
-0.00265276
-0.00257854
0.00486154
-0.0882189
-0.0108315
-0.0106139
-0.0121461
-0.0117307
0.0175841
0.0169938
0.0174273
0.0170865
0.00117697
0.00139563
-0.000387797
-0.000176573
0.0118338
0.0883719
-0.0484372
0.0167012
0.0880516
-0.0501833
0.0230475
0.0871825
-0.050013
0.00583625
0.079962
-0.0560549
-0.0163326
-0.0163061
-0.0162837
-0.0158901
0.00683645
0.00463034
0.00572207
-0.0136
0.00756833
0.00654771
0.014377
-0.00905673
-0.0113676
0.0100762
-0.00726154
0.0072732
0.0123754
-0.0110956
-0.00967547
0.0116812
-0.00726428
0.00725347
0.0108083
-0.0128032
-0.00821048
0.0124429
-0.00748277
0.00778018
0.0091805
-0.0137103
-0.00573924
0.0131489
-0.00837932
0.00877371
0.00682
-0.0146241
0.0487593
0.0209826
-0.0866544
-0.00280515
-0.00095593
-0.00424343
-0.00298892
0.0163066
0.016375
0.0157675
0.0163475
-0.00932444
-0.00805712
-0.0100486
-0.00946048
0.00825496
-0.0902469
0.0111718
0.0972768
-0.0600756
0.0147043
0.0963706
-0.0616067
0.0206449
0.0940366
-0.062198
0.0252246
0.0863694
-0.0655041
0.0250641
0.078448
-0.0708592
-0.0158615
-0.0153216
-0.0161705
-0.0153576
0.0245761
0.0701467
-0.0748761
-0.0139969
-0.0133232
-0.014294
-0.0137707
0.0256306
0.0615115
-0.0787826
-0.0122549
-0.0114447
-0.0126782
-0.0121521
0.0277577
0.0517993
-0.0824316
-0.0103508
-0.00912811
-0.0108486
-0.0101356
0.0290352
0.0401136
-0.0859104
-0.00782038
-0.00585579
-0.00829411
-0.00742239
0.0329101
0.0265187
-0.0925623
0.013648
-0.0951703
0.00976928
-0.0657051
0.0114115
-0.0672241
0.0135491
-0.0681992
0.0150245
-0.0705088
0.0155957
-0.0737724
0.0162591
-0.0769836
0.0171659
-0.0804833
0.0189194
-0.0840274
0.0205715
-0.0879191
0.0251952
-0.0939346
-0.0981858
0.0152005
0.00832887
-0.0282091
0.0225724
0.00772708
-0.0270035
0.0313186
0.00648076
-0.0249055
0.0437866
0.0026862
-0.0231261
0.0590607
0.000218441
-0.0227465
0.000711006
0.000161806
0.000470984
0.0740604
0.000110508
-0.0251497
0.000857621
-0.000179329
0.00054451
0.0872307
0.000227618
-0.0303368
0.00117945
-0.000209774
0.000771673
0.100295
0.000207392
-0.037817
0.00146757