/*--------------------------------*- C++ -*----------------------------------*\
| =========                 |                                                 |
| \\      /  F ield         | OpenFOAM: The Open Source CFD Toolbox           |
|  \\    /   O peration     | Version:  v1906                                 |
|   \\  /    A nd           | Web:      www.OpenFOAM.com                      |
|    \\/     M anipulation  |                                                 |
\*---------------------------------------------------------------------------*/
FoamFile
{
    version     2.0;
    format      ascii;
    class       volVectorField;
    location    "40";
    object      U;
}
// * * * * * * * * * * * * * * * * * * * * * * * * * * * * * * * * * * * * * //

dimensions      [0 1 -1 0 0 0 0];


internalField   nonuniform List<vector> 
34761
(
(0.145081 0.0832121 -0.0470084)
(0.244466 0.0718379 -0.036958)
(0.327132 0.0393032 -0.0353345)
(0.490177 0.0527968 0.00489036)
(0.493397 0.0476369 -0.0142463)
(0.675134 0.0559376 -0.0199879)
(0.824787 0.0634677 -0.0280233)
(0.997714 0.0678765 -0.0376439)
(1.20837 0.0731344 -0.0480163)
(1.53647 0.0181727 -0.210437)
(1.93262 0.167523 -0.231144)
(0.146743 0.102086 -0.053275)
(0.225993 0.0979387 -0.0504846)
(0.319541 0.0467731 -0.0210392)
(0.340001 0.00110934 -0.0211121)
(0.54061 -0.071079 -0.0139904)
(0.753888 -0.00354049 -0.0233922)
(0.895749 0.0172012 -0.0315493)
(1.06745 0.0277558 -0.0412885)
(1.27187 0.0643016 -0.0501777)
(1.41311 0.198789 -0.044706)
(1.72374 0.33285 -0.30556)
(0.149325 0.108785 -0.0591774)
(0.213287 0.0843601 -0.0539597)
(0.292355 0.0486788 -0.0500118)
(0.281115 -0.00288243 -0.0180027)
(0.276671 -0.120189 0.00646362)
(0.450398 -0.0402067 -0.00228105)
(0.462318 -0.0188616 -0.00501631)
(0.547805 -0.0199026 -0.00624474)
(0.679631 -0.00459908 -0.00751286)
(0.726809 0.595671 -0.101626)
(0.857655 0.238434 -0.161149)
(0.115017 0.147045 -0.0537719)
(0.168391 0.15365 -0.0526359)
(0.255162 0.168875 -0.0409019)
(0.237407 0.0739652 -0.0138551)
(0.160931 0.0085852 -0.00284012)
(0.261843 0.303114 0.00209968)
(0.742569 0.153899 -0.177344)
(0.143517 0.229045 -0.0510729)
(0.156999 0.14868 -0.0200207)
(0.204378 0.15344 -0.0140279)
(0.185923 0.182305 -0.00753776)
(0.0815738 0.128274 -0.00262776)
(0.248364 0.161501 -0.00330391)
(0.702658 0.0779413 -0.190905)
(0.111827 0.221408 -0.0192622)
(0.147005 0.179798 -0.0138771)
(0.262908 0.182884 -0.0108996)
(0.154192 0.302745 -0.00645521)
(0.0563275 0.228411 -0.00280443)
(0.247288 0.0878177 -0.00938322)
(0.68196 0.0372687 -0.197193)
(0.0947634 0.278853 -0.0157975)
(0.055646 0.216023 -0.00919989)
(0.131066 0.426803 0.00512522)
(0.0351957 0.30897 -0.00309923)
(0.248228 0.046034 -0.0146065)
(0.672086 0.016852 -0.199908)
(0.0784442 0.391333 -0.0179778)
(-0.00630798 0.334582 -0.00773332)
(0.294025 0.434276 0.0181724)
(0.0607565 0.341096 -0.00183285)
(0.250403 0.021648 -0.018596)
(0.668307 0.00630481 -0.200972)
(0.0742932 0.529624 -0.0188288)
(-0.00088314 0.425342 -0.00699256)
(0.246915 0.488034 0.00353404)
(0.0356694 0.395653 -0.00325976)
(0.253756 0.00638476 -0.0216887)
(0.668057 0.000950898 -0.201335)
(0.0716805 0.674987 -0.0201605)
(-0.00688278 0.555586 -0.00870877)
(0.0733235 0.607507 -0.0224588)
(0.00103783 0.44856 -0.00476178)
(0.252996 -0.00650169 -0.0219099)
(0.667614 -0.00229159 -0.201258)
(0.131893 0.74915 -0.022325)
(0.322476 0.607339 -0.0237493)
(-0.0602748 0.274255 -0.0102645)
(-0.0713325 0.688629 -0.0235301)
(-0.0202751 0.491865 -0.00548512)
(0.249357 -0.0207635 -0.0195652)
(0.668628 -0.00928169 -0.200946)
(0.100294 0.851865 -0.0935244)
(0.0671929 0.701649 -0.029927)
(0.0303119 0.677664 -0.0284077)
(0.00516583 0.721817 -0.0261726)
(-0.00889079 0.525715 -0.00644046)
(0.24716 -0.0413844 -0.0169122)
(0.672576 -0.0215152 -0.200044)
(0.170584 0.941395 -0.0989318)
(0.177029 0.944579 -0.103251)
(0.0473214 1.00157 -0.100657)
(0.00868149 0.795342 -0.0290667)
(0.02077 0.592043 -0.00624503)
(0.247462 -0.0756066 -0.0155656)
(0.678426 -0.0428454 -0.197467)
(0.120847 1.04369 -0.121915)
(0.119992 1.04158 -0.121932)
(0.145015 1.06121 -0.115717)
(0.113718 0.891451 -0.0353253)
(0.115974 0.683299 -0.00953543)
(0.272515 -0.149773 -0.0368421)
(0.675439 -0.0683473 -0.185936)
(0.139094 1.35187 -0.131617)
(0.164128 1.3721 -0.134505)
(0.27693 1.35758 -0.122582)
(0.271619 0.911275 -0.0801921)
(0.406924 0.822687 -0.107873)
(0.479874 0.370003 -0.069593)
(0.364411 0.263781 -0.0734452)
(0.360246 0.219735 -0.0723619)
(0.436723 0.145023 -0.069908)
(0.68252 -0.005619 -0.149398)
(1.30248 0.00921885 -0.435531)
(0.134916 1.36964 -0.219078)
(0.153639 1.35036 -0.229835)
(0.284387 1.33313 -0.213949)
(0.291271 1.18298 -0.312141)
(0.192437 0.995432 -0.13122)
(0.309698 0.831256 -0.136845)
(0.330444 0.750415 -0.145851)
(0.359794 0.670317 -0.154761)
(0.43583 0.559583 -0.162459)
(0.515409 0.322386 -0.487887)
(1.07261 0.143242 -0.479244)
(0.111891 2.01883 -0.24437)
(0.143052 2.00976 -0.249278)
(0.172727 1.9644 -0.260731)
(0.272866 1.84151 -0.271278)
(0.286797 1.65819 -0.378814)
(0.188494 1.58868 -0.379269)
(0.211956 1.49927 -0.400062)
(0.213209 1.39554 -0.407278)
(0.298861 1.26044 -0.422775)
(0.329736 1.00181 -0.459849)
(0.940912 0.824919 -0.461739)
(0.145069 0.088066 -0.131058)
(0.232205 0.073185 -0.116878)
(0.341756 0.0677248 -0.0941576)
(0.443305 -0.000811992 -0.0551258)
(0.717258 0.0684298 -0.0560685)
(0.665432 0.0689151 -0.108941)
(0.779506 0.0629941 -0.119818)
(0.935109 0.0658766 -0.158816)
(1.11084 0.0691991 -0.225933)
(1.40074 0.0171387 -0.614018)
(1.56564 0.159171 -0.545226)
(0.141032 0.103875 -0.146137)
(0.236785 0.0980634 -0.136934)
(0.307957 0.0577054 -0.101689)
(0.465305 -0.0053232 -0.0965991)
(0.514292 -0.0791422 -0.0673401)
(0.714422 0.01276 -0.0927428)
(0.847961 0.00722523 -0.121216)
(1.0011 0.013771 -0.164007)
(1.17189 0.0573557 -0.221235)
(1.25794 0.166634 -0.300244)
(1.36109 0.271439 -0.647913)
(0.146902 0.0961634 -0.154938)
(0.207538 0.07683 -0.146359)
(0.290701 0.025948 -0.130175)
(0.26832 -0.0205876 -0.0587405)
(0.289691 -0.0907321 -0.0164117)
(0.558396 -0.0598445 -0.00109465)
(0.61548 -0.0214301 -0.0601603)
(0.725708 -0.0216948 -0.086526)
(0.908117 0.0114458 -0.135652)
(0.793136 0.403131 -0.234902)
(0.710981 0.231805 -0.503159)
(0.116639 0.13242 -0.149888)
(0.17249 0.136797 -0.145385)
(0.25179 0.15916 -0.123439)
(0.229213 0.0658736 -0.0519402)
(0.161209 0.000955184 -0.0140766)
(0.195109 0.344053 -0.318071)
(0.538498 0.158315 -0.557687)
(0.145587 0.199344 -0.146765)
(0.167527 0.1335 -0.0720833)
(0.206497 0.146857 -0.0552477)
(0.180877 0.178889 -0.0408777)
(0.0791074 0.12266 -0.0106609)
(0.150376 0.15008 -0.35376)
(0.460002 0.0829209 -0.600619)
(0.113032 0.199353 -0.0729907)
(0.156149 0.157879 -0.0681594)
(0.269454 0.18339 -0.0509738)
(0.147391 0.304077 -0.0362241)
(0.0503992 0.225609 -0.00821935)
(0.132125 0.0752772 -0.381479)
(0.416618 0.0410784 -0.627203)
(0.0946658 0.252476 -0.0766955)
(0.064551 0.185417 -0.0546431)
(0.0567804 0.433211 -0.032209)
(0.0177842 0.307475 -0.00518763)
(0.121715 0.0369841 -0.399845)
(0.394112 0.0194656 -0.642179)
(0.0771077 0.368649 -0.0805414)
(-0.00748059 0.314546 -0.0326776)
(0.0128637 0.485588 -0.0459828)
(0.00766851 0.345956 -0.00519415)
(0.116082 0.0164956 -0.410823)
(0.383691 0.00792938 -0.650039)
(0.0729427 0.505025 -0.0847078)
(-0.00200638 0.412475 -0.041619)
(0.0131931 0.539534 -0.0619863)
(0.00130487 0.388767 -0.0169077)
(0.113528 0.00409138 -0.418031)
(0.380536 0.00125891 -0.653937)
(0.0712471 0.646968 -0.089703)
(-0.00696657 0.542428 -0.0498504)
(-0.00869993 0.617093 -0.087873)
(-0.0078075 0.431929 -0.0347179)
(0.113439 -0.0059382 -0.417564)
(0.381393 -0.00453383 -0.652797)
(0.130871 0.711737 -0.0996583)
(0.310481 0.572754 -0.102574)
(-0.0323694 0.257356 -0.0897001)
(-0.0703631 0.661062 -0.101809)
(-0.0206884 0.471839 -0.0486958)
(0.115786 -0.0187736 -0.413837)
(0.387589 -0.0133102 -0.649191)
(0.0990949 0.79132 -0.251737)
(0.0740732 0.651286 -0.130033)
(0.0360359 0.630464 -0.129725)
(0.0113833 0.685878 -0.118806)
(-0.00355227 0.507652 -0.0586132)
(0.121364 -0.0402144 -0.409336)
(0.400939 -0.0278103 -0.643105)
(0.164515 0.857465 -0.270029)
(0.171248 0.859491 -0.280099)
(0.0587966 0.910744 -0.274534)
(0.0236754 0.755991 -0.131851)
(0.0334009 0.575192 -0.0578803)
(0.135944 -0.0944138 -0.405416)
(0.422705 -0.054508 -0.636022)
(0.120926 0.948213 -0.321129)
(0.123232 0.942386 -0.325764)
(0.168387 0.967234 -0.311227)
(0.131714 0.858131 -0.151845)
(0.163838 0.664932 -0.0553436)
(0.273966 -0.260403 -0.398897)
(0.459464 -0.0832233 -0.642088)
(0.13597 1.17957 -0.348334)
(0.169491 1.1863 -0.354106)
(0.268308 1.17916 -0.350159)
(0.367815 1.10713 -0.386626)
(0.396482 0.740196 -0.248308)
(0.430335 0.5438 -0.306829)
(0.396675 0.425101 -0.395488)
(0.408178 0.347273 -0.424988)
(0.475497 0.224155 -0.468024)
(0.583035 0.0619433 -0.588948)
(0.796294 0.0363207 -0.903906)
(0.124311 1.19421 -0.506173)
(0.156125 1.17899 -0.522774)
(0.225634 1.15179 -0.508495)
(0.305022 1.03827 -0.589815)
(0.334953 0.926239 -0.545343)
(0.319927 0.781526 -0.616988)
(0.337677 0.658012 -0.668458)
(0.348098 0.538541 -0.719135)
(0.459479 0.373636 -0.803301)
(0.441436 0.245964 -0.929088)
(0.653906 0.0945929 -0.950812)
(0.110891 1.5756 -0.562749)
(0.130948 1.56746 -0.573477)
(0.158306 1.52717 -0.590868)
(0.195163 1.44316 -0.604309)
(0.210416 1.31151 -0.710947)
(0.209819 1.21388 -0.73022)
(0.219979 1.11032 -0.76875)
(0.226916 0.984404 -0.798809)
(0.284188 0.861514 -0.834375)
(0.282933 0.579594 -0.92411)
(0.555357 0.437456 -0.952818)
(0.140544 0.0882551 -0.220099)
(0.23362 0.0772581 -0.205465)
(0.33004 0.0653069 -0.177064)
(0.472576 0.016084 -0.157223)
(0.678318 0.0265038 -0.108013)
(0.857464 0.037224 -0.149771)
(1.04678 0.0531245 -0.239954)
(1.18435 0.0557451 -0.325223)
(1.41725 0.113257 -0.504509)
(1.39083 0.0817501 -0.699401)
(1.44097 0.159303 -0.682892)
(0.140261 0.103936 -0.239108)
(0.234452 0.0998744 -0.225553)
(0.307845 0.0615835 -0.203372)
(0.451809 0.0194685 -0.183062)
(0.494436 -0.0419715 -0.0904258)
(0.669518 -0.0269283 -0.104556)
(0.797735 -0.0156427 -0.167656)
(0.937616 -0.0178964 -0.233646)
(1.07285 0.0371041 -0.323125)
(1.14816 0.122344 -0.461298)
(1.22357 0.177163 -0.866522)
(0.144745 0.08766 -0.248308)
(0.212913 0.0721797 -0.237005)
(0.290937 0.0276006 -0.216492)
(0.291504 -0.00809028 -0.11577)
(0.403191 -0.0964246 -0.052766)
(0.486397 -0.0557181 -0.0556796)
(0.558823 -0.0468462 -0.119225)
(0.660655 -0.0506125 -0.167249)
(0.817784 -0.0254468 -0.230365)
(0.791548 0.260748 -0.361152)
(0.67973 0.146817 -0.666607)
(0.12137 0.117272 -0.246141)
(0.180791 0.124705 -0.236603)
(0.261271 0.146226 -0.208147)
(0.240797 0.0618612 -0.100474)
(0.179385 -0.014409 -0.0329526)
(0.205888 0.347039 -0.473235)
(0.455851 0.166009 -0.727003)
(0.149696 0.170089 -0.245461)
(0.176489 0.115653 -0.130122)
(0.216343 0.138123 -0.100522)
(0.19112 0.169131 -0.0759872)
(0.0956087 0.10733 -0.0280662)
(0.120029 0.153845 -0.548048)
(0.346316 0.0908942 -0.791136)
(0.114621 0.171244 -0.135281)
(0.169889 0.133084 -0.125375)
(0.282201 0.178027 -0.0901733)
(0.155678 0.293687 -0.0640592)
(0.0555276 0.214729 -0.0199535)
(0.0985829 0.0730874 -0.581161)
(0.287976 0.0451295 -0.831762)
(0.0945685 0.219659 -0.143057)
(0.0700403 0.148591 -0.105191)
(0.0440406 0.413628 -0.0639667)
(0.0153116 0.29698 -0.0193594)
(0.0880031 0.0341499 -0.60232)
(0.258258 0.020658 -0.855793)
(0.0776566 0.337623 -0.141992)
(-0.00625751 0.283915 -0.0774271)
(-0.0100564 0.456962 -0.0765268)
(0.00239422 0.32976 -0.0266326)
(0.0828203 0.0148991 -0.615343)
(0.245114 0.007726 -0.868694)
(0.072813 0.473505 -0.145231)
(0.000820009 0.386714 -0.0880411)
(-0.00357041 0.516677 -0.0966241)
(-0.0031406 0.369401 -0.0412481)
(0.081649 0.00182032 -0.62455)
(0.241715 -0.000646027 -0.874113)
(0.0717388 0.611464 -0.152234)
(-0.00338877 0.514867 -0.0965386)
(-0.00867774 0.585646 -0.132732)
(-0.00765229 0.409004 -0.0652261)
(0.0822232 -0.00938972 -0.62579)
(0.24623 -0.00926612 -0.870194)
(0.130068 0.668339 -0.168715)
(0.30483 0.53639 -0.170259)
(-0.0104357 0.235709 -0.157096)
(-0.0512863 0.619816 -0.168916)
(-0.011989 0.448434 -0.0893029)
(0.0880431 -0.0263782 -0.626866)
(0.260012 -0.0228703 -0.861014)
(0.0989334 0.727949 -0.384194)
(0.0837468 0.593986 -0.22146)
(0.0487891 0.570988 -0.220958)
(0.0297723 0.631853 -0.202185)
(0.0193457 0.478218 -0.105464)
(0.098302 -0.0682437 -0.635276)
(0.28777 -0.0434256 -0.8446)
(0.159439 0.77036 -0.416754)
(0.168187 0.76688 -0.432752)
(0.0730366 0.809463 -0.42743)
(0.0499856 0.682696 -0.237869)
(0.0794958 0.535338 -0.11302)
(0.137329 -0.16158 -0.615225)
(0.325009 -0.0797571 -0.827096)
(0.118085 0.849123 -0.481102)
(0.125107 0.842376 -0.490804)
(0.157955 0.854557 -0.47418)
(0.152585 0.735242 -0.300836)
(0.292609 0.693886 -0.311401)
(0.419869 0.386405 -0.300592)
(0.311883 0.317989 -0.412542)
(0.317328 0.292842 -0.430627)
(0.412996 0.215147 -0.431843)
(0.566903 0.0108019 -0.769355)
(0.677181 0.0182904 -1.09193)
(0.133473 1.02243 -0.523404)
(0.152932 1.02781 -0.539409)
(0.250954 1.02579 -0.537809)
(0.291526 0.963672 -0.611919)
(0.270652 0.659591 -0.43278)
(0.340729 0.549382 -0.545021)
(0.340296 0.475108 -0.617435)
(0.362072 0.400995 -0.652867)
(0.419778 0.287558 -0.678202)
(0.512936 0.237843 -1.05198)
(0.65757 0.1048 -1.07643)
(0.119804 1.04296 -0.672168)
(0.149206 1.02937 -0.688084)
(0.20401 1.01039 -0.690984)
(0.287924 0.90622 -0.732536)
(0.310229 0.840849 -0.793777)
(0.284667 0.737029 -0.843418)
(0.297133 0.637552 -0.884489)
(0.30811 0.525671 -0.929773)
(0.348069 0.382098 -0.970738)
(0.340721 0.258711 -1.08732)
(0.448564 0.0941162 -1.11728)
(0.109776 1.26263 -0.73883)
(0.125165 1.25433 -0.754912)
(0.148728 1.21864 -0.765385)
(0.174648 1.14272 -0.793144)
(0.18318 1.02385 -0.836262)
(0.187308 0.930449 -0.876959)
(0.198193 0.823735 -0.920913)
(0.207511 0.704892 -0.964185)
(0.240767 0.574572 -1.01777)
(0.245521 0.378157 -1.09388)
(0.357921 0.236728 -1.146)
(0.138279 0.0903605 -0.299619)
(0.222326 0.0802607 -0.285147)
(0.31408 0.0759152 -0.259741)
(0.429114 0.0278459 -0.239974)
(0.608188 0.0378981 -0.238646)
(0.781964 0.0359025 -0.266238)
(0.955867 0.0387779 -0.324758)
(1.08559 0.0325295 -0.411108)
(1.27286 0.0654355 -0.507599)
(1.2405 0.0835555 -0.687799)
(1.32181 0.0783948 -0.75623)
(0.139038 0.104985 -0.320276)
(0.231669 0.101498 -0.301689)
(0.299536 0.0763387 -0.280847)
(0.422711 0.039162 -0.233774)
(0.451594 -0.000598251 -0.160288)
(0.590531 -0.00269901 -0.185709)
(0.707292 0.0029536 -0.244369)
(0.840068 0.000543222 -0.31474)
(0.978778 0.0308879 -0.397863)
(1.29365 0.122605 -0.75705)
(1.24577 0.132915 -0.92142)
(0.143708 0.0820444 -0.330169)
(0.216028 0.0719949 -0.318925)
(0.279165 0.0377015 -0.278101)
(0.292144 0.0142411 -0.182531)
(0.415217 -0.0620626 -0.101558)
(0.592284 -0.0664753 -0.129797)
(0.702834 -0.0556684 -0.199011)
(0.838207 -0.0555594 -0.265446)
(1.00065 -0.00137454 -0.375117)
(1.07765 0.134247 -0.574621)
(1.0407 0.136464 -0.926418)
(0.126709 0.104475 -0.335129)
(0.191989 0.117913 -0.319795)
(0.272508 0.146011 -0.285154)
(0.256514 0.0746554 -0.154552)
(0.221237 -0.0208044 -0.0487681)
(0.364288 -0.0338303 -0.0404824)
(0.352007 -0.0555732 -0.0843009)
(0.417248 -0.0658347 -0.109716)
(0.525026 -0.0682921 -0.136689)
(0.549387 0.455745 -0.628032)
(0.509897 0.155568 -0.816802)
(0.152537 0.138348 -0.340063)
(0.187384 0.0997048 -0.190751)
(0.231441 0.130571 -0.151787)
(0.217076 0.159488 -0.120469)
(0.14667 0.0896161 -0.0441027)
(0.171869 0.157199 -0.752518)
(0.373649 0.0885088 -0.903522)
(0.11681 0.143315 -0.199326)
(0.18681 0.106156 -0.184213)
(0.299416 0.169507 -0.133756)
(0.182467 0.273628 -0.0977916)
(0.09947 0.187394 -0.0286568)
(0.142596 0.0524718 -0.799727)
(0.314197 0.0403106 -0.954922)
(0.0942953 0.1816 -0.212906)
(0.0753232 0.108808 -0.156983)
(0.0649656 0.378204 -0.103626)
(0.0526906 0.26268 -0.0332344)
(0.130288 0.0390896 -0.80586)
(0.286466 0.0146218 -0.983694)
(0.0776483 0.29945 -0.206341)
(-0.00740838 0.246004 -0.127121)
(0.0163076 0.406651 -0.121649)
(0.0401415 0.288614 -0.0502394)
(0.132993 -0.000949206 -0.828311)
(0.277336 0.00278352 -0.999331)
(0.0731259 0.435085 -0.204561)
(0.00483488 0.354275 -0.13564)
(0.0225669 0.457717 -0.14154)
(0.036626 0.31613 -0.0719381)
(0.181059 -0.00355595 -0.809592)
(0.281597 -0.00776042 -0.997665)
(0.0726208 0.569353 -0.211124)
(0.000517565 0.481847 -0.142291)
(0.0188293 0.519146 -0.187678)
(0.0287178 0.346579 -0.105477)
(0.210072 -0.016454 -0.866235)
(0.298541 -0.015479 -0.988728)
(0.129608 0.619426 -0.231359)
(0.301538 0.494067 -0.230365)
(0.0235933 0.210021 -0.207838)
(-0.0136879 0.548024 -0.240103)
(0.0317008 0.379666 -0.136492)
(0.224484 -0.0615135 -0.924252)
(0.330883 -0.03554 -0.967465)
(0.101229 0.657847 -0.496515)
(0.0969023 0.52963 -0.30166)
(0.0699752 0.497992 -0.300835)
(0.0566415 0.548872 -0.300376)
(0.0820613 0.415284 -0.158447)
(0.213865 0.217034 -0.0667051)
(0.224015 0.253724 -0.0904815)
(0.28506 0.242107 -0.0892852)
(0.40966 0.202415 -0.0778962)
(0.465092 -0.142618 -0.868244)
(0.394959 -0.0350799 -0.911731)
(0.15392 0.680463 -0.540144)
(0.165677 0.671357 -0.56601)
(0.0771611 0.704409 -0.557318)
(0.0732901 0.594134 -0.360257)
(0.191313 0.606887 -0.322815)
(0.27564 0.411574 -0.223673)
(0.290392 0.407603 -0.292931)
(0.349119 0.379863 -0.305176)
(0.496428 0.286269 -0.334011)
(0.670155 0.047828 -0.815622)
(0.684967 0.0445301 -1.13341)
(0.116939 0.745384 -0.610576)
(0.129538 0.729043 -0.62384)
(0.153872 0.741051 -0.60757)
(0.209018 0.780369 -0.615007)
(0.209914 0.615774 -0.428668)
(0.323466 0.55335 -0.504186)
(0.355925 0.504612 -0.570401)
(0.417396 0.44086 -0.606712)
(0.518819 0.31649 -0.652515)
(0.629193 0.175212 -1.0573)
(0.659976 0.0675787 -1.10021)
(0.121831 0.871854 -0.661209)
(0.145324 0.875809 -0.683871)
(0.181081 0.873216 -0.67718)
(0.241274 0.845468 -0.745553)
(0.301395 0.780952 -0.756385)
(0.33147 0.700972 -0.821937)
(0.381447 0.610516 -0.881969)
(0.410834 0.509432 -0.929053)
(0.53549 0.377399 -0.996667)
(0.539321 0.249981 -1.05292)
(0.56579 0.0791188 -1.13385)
(0.112806 0.897309 -0.794781)
(0.133247 0.892351 -0.812892)
(0.165852 0.874369 -0.820008)
(0.209224 0.831508 -0.854926)
(0.240785 0.764905 -0.916983)
(0.259684 0.695863 -0.957806)
(0.281172 0.618269 -1.00287)
(0.297947 0.518729 -1.04228)
(0.332968 0.418832 -1.092)
(0.339593 0.227309 -1.15271)
(0.380747 0.10335 -1.2022)
(0.10651 1.04865 -0.86555)
(0.117835 1.04578 -0.883783)
(0.131811 1.02051 -0.893139)
(0.149735 0.968986 -0.916764)
(0.161601 0.897133 -0.947776)
(0.167825 0.813952 -0.9787)
(0.181279 0.722319 -1.01377)
(0.187896 0.606421 -1.05454)
(0.220563 0.489445 -1.09879)
(0.224899 0.30154 -1.17912)
(0.275127 0.162418 -1.23792)
(0.134969 0.090476 -0.3809)
(0.217818 0.0872365 -0.365874)
(0.297338 0.0781814 -0.341313)
(0.396774 0.0762274 -0.318569)
(0.539368 0.0432905 -0.311663)
(0.67354 0.031664 -0.339336)
(0.828278 0.024208 -0.399079)
(0.940243 0.0171446 -0.485805)
(1.10156 0.0144806 -0.590207)
(1.15485 0.0444295 -0.738556)
(1.23086 0.0528432 -0.798437)
(0.142929 0.106481 -0.403159)
(0.228223 0.101992 -0.382539)
(0.32252 0.102283 -0.355772)
(0.412434 0.0358128 -0.311652)
(0.565826 0.0338054 -0.285803)
(0.722524 0.0254496 -0.311722)
(0.880197 0.0333677 -0.385116)
(1.00085 0.025965 -0.471541)
(1.18653 0.0641352 -0.63228)
(1.22452 0.0755483 -0.808068)
(1.20798 0.149134 -0.889578)
(0.13994 0.074186 -0.413867)
(0.237348 0.0645241 -0.391837)
(0.27244 0.0439934 -0.356071)
(0.386088 0.019622 -0.332449)
(0.397089 -0.0166984 -0.2273)
(0.519117 -0.0488339 -0.226794)
(0.620395 -0.048619 -0.284489)
(0.74119 -0.0580654 -0.355699)
(0.863921 -0.0180838 -0.466853)
(0.963714 0.0469067 -0.590841)
(1.06253 0.0656644 -0.957341)
(0.131715 0.0860958 -0.422982)
(0.202558 0.108732 -0.401571)
(0.271654 0.121602 -0.357863)
(0.277302 0.090135 -0.214881)
(0.316204 0.0285712 -0.148263)
(0.384535 -0.0285336 -0.108834)
(0.444089 -0.032532 -0.139334)
(0.536748 -0.0441353 -0.180553)
(0.673368 -0.0232956 -0.267278)
(0.970792 0.116727 -0.662284)
(0.981012 -0.00536588 -1.04171)
(0.152315 0.1035 -0.433607)
(0.198189 0.0835497 -0.250093)
(0.248762 0.118555 -0.204871)
(0.244107 0.149892 -0.189152)
(0.274026 0.126509 -0.124157)
(0.345165 0.0396013 -0.0371078)
(0.428307 0.0129336 -0.0722524)
(0.541535 -0.00658707 -0.092894)
(0.724725 -0.00205631 -0.164288)
(0.924706 0.0619911 -0.825571)
(0.897012 0.0371465 -1.09958)
(0.118919 0.112631 -0.264569)
(0.202398 0.0805323 -0.243071)
(0.317006 0.161176 -0.184229)
(0.221629 0.25403 -0.153902)
(0.220057 0.223781 -0.110967)
(0.31112 0.0982537 -0.0347146)
(0.402391 0.0710233 -0.0655646)
(0.526344 0.0523509 -0.0838559)
(0.735726 0.0440695 -0.161237)
(0.932611 0.0271277 -0.846739)
(0.865248 0.00939471 -1.12491)
(0.0937427 0.14021 -0.284895)
(0.0824664 0.0694514 -0.20884)
(0.102311 0.332339 -0.16733)
(0.148389 0.280536 -0.151018)
(0.28363 0.138682 -0.0795199)
(0.376945 0.112074 -0.0902455)
(0.504443 0.0893751 -0.109889)
(0.708606 0.0710343 -0.1892)
(0.941929 0.0178826 -0.837348)
(0.845519 0.0130965 -1.13106)
(0.0780785 0.256533 -0.273167)
(-0.0124997 0.203543 -0.184453)
(0.0535742 0.346309 -0.195254)
(0.112945 0.311726 -0.194784)
(0.262893 0.167521 -0.091179)
(0.364322 0.132277 -0.0919876)
(0.496499 0.100596 -0.112595)
(0.700405 0.064392 -0.195453)
(0.937686 0.0137442 -0.80877)
(0.835979 0.00744483 -1.1301)
(0.073636 0.391261 -0.264053)
(0.00878899 0.317718 -0.183373)
(0.0539333 0.388895 -0.22565)
(0.115042 0.358294 -0.237209)
(0.218849 0.195426 -0.105326)
(0.343762 0.158466 -0.0972646)
(0.475517 0.121108 -0.120769)
(0.673905 0.0748006 -0.206)
(0.903103 0.0159773 -0.813988)
(0.826467 0.0115897 -1.12735)
(0.0736111 0.522218 -0.267822)
(0.00459624 0.445116 -0.186004)
(0.0520683 0.439087 -0.261972)
(0.0876902 0.395644 -0.252792)
(0.214334 0.244175 -0.127065)
(0.32199 0.19873 -0.122001)
(0.444763 0.159487 -0.146187)
(0.632601 0.0947301 -0.234009)
(0.867492 0.0216151 -0.797893)
(0.820505 0.0168421 -1.1144)
(0.129054 0.566448 -0.289331)
(0.30052 0.448014 -0.285056)
(0.0673222 0.180752 -0.249092)
(0.0298524 0.468356 -0.299254)
(0.0951857 0.4299 -0.293106)
(0.303443 0.376951 -0.258421)
(0.412064 0.331555 -0.271422)
(0.564523 0.274994 -0.307655)
(0.753662 0.168868 -0.421188)
(0.892405 0.0698651 -0.740285)
(0.800459 0.0193712 -1.10002)
(0.104506 0.586099 -0.592527)
(0.108782 0.461621 -0.368133)
(0.0993043 0.409536 -0.34908)
(0.0637675 0.566232 -0.521149)
(0.0948407 0.477103 -0.349224)
(0.272122 0.443083 -0.331391)
(0.379697 0.410998 -0.349468)
(0.506381 0.356867 -0.3882)
(0.655272 0.260888 -0.491523)
(0.76651 0.117401 -0.715385)
(0.761886 0.0674092 -1.08877)
(0.145215 0.593788 -0.641638)
(0.166132 0.576007 -0.666016)
(0.0466493 0.599066 -0.674978)
(0.103051 0.675635 -0.646301)
(0.188392 0.525636 -0.427498)
(0.267998 0.522519 -0.446211)
(0.336098 0.497333 -0.480847)
(0.43096 0.443778 -0.516608)
(0.554848 0.334559 -0.579365)
(0.715249 0.205273 -1.01735)
(0.715008 0.0753014 -1.08454)
(0.114755 0.646508 -0.715072)
(0.130536 0.631993 -0.729729)
(0.140028 0.633022 -0.723368)
(0.191751 0.702775 -0.710234)
(0.272099 0.658424 -0.715131)
(0.329712 0.62116 -0.747383)
(0.405845 0.55975 -0.800434)
(0.461112 0.472245 -0.855615)
(0.595996 0.34471 -0.953418)
(0.607925 0.209799 -1.05115)
(0.613014 0.0645882 -1.14153)
(0.117248 0.740719 -0.768242)
(0.136197 0.744696 -0.785578)
(0.155472 0.741756 -0.789195)
(0.197795 0.73074 -0.800959)
(0.252924 0.70223 -0.837604)
(0.29988 0.654763 -0.869072)
(0.344909 0.593822 -0.908558)
(0.38666 0.504807 -0.955492)
(0.43568 0.408732 -1.00047)
(0.454772 0.223214 -1.11831)
(0.49762 0.0979629 -1.16796)
(0.109521 0.765396 -0.880689)
(0.126783 0.763178 -0.896841)
(0.149102 0.749416 -0.901595)
(0.181001 0.723849 -0.918092)
(0.206443 0.67991 -0.94798)
(0.224433 0.619629 -0.982859)
(0.250203 0.545902 -1.02178)
(0.267494 0.453674 -1.06604)
(0.304572 0.345853 -1.11179)
(0.313881 0.216746 -1.18274)
(0.33913 0.0873137 -1.2378)
(0.105013 0.872627 -0.950587)
(0.113246 0.871939 -0.968692)
(0.123255 0.85158 -0.976576)
(0.135636 0.813895 -0.991728)
(0.147309 0.758459 -1.01572)
(0.157565 0.692049 -1.04226)
(0.168935 0.613869 -1.07351)
(0.178135 0.51378 -1.11298)
(0.194226 0.409191 -1.15453)
(0.198914 0.250366 -1.22717)
(0.225555 0.122003 -1.28075)
(0.133235 0.090666 -0.450604)
(0.204751 0.086223 -0.438141)
(0.282815 0.0838601 -0.419116)
(0.362877 0.0747483 -0.396377)
(0.47431 0.0709334 -0.393744)
(0.590133 0.0649744 -0.410709)
(0.722093 0.0659988 -0.454302)
(0.821797 0.061327 -0.524487)
(0.962017 0.072267 -0.610869)
(1.00478 0.0691254 -0.732446)
(1.13194 0.0555708 -0.840522)
(0.139634 0.106717 -0.475009)
(0.219768 0.109407 -0.457872)
(0.303743 0.108016 -0.433802)
(0.389608 0.0991831 -0.411717)
(0.511562 0.0647145 -0.396405)
(0.636308 0.0461354 -0.412204)
(0.7713 0.0339819 -0.459849)
(0.885135 0.0141799 -0.536213)
(1.0209 0.0228028 -0.630601)
(1.04368 0.00786794 -0.793763)
(1.10254 0.0699908 -0.929342)
(0.146107 0.0730539 -0.489229)
(0.228227 0.0692692 -0.463183)
(0.308455 0.068276 -0.438857)
(0.364394 0.0442603 -0.376899)
(0.481626 0.0305409 -0.377807)
(0.623116 0.00927832 -0.394008)
(0.75697 -0.00463847 -0.447169)
(0.885974 -0.0195909 -0.513642)
(1.01774 0.0154624 -0.641212)
(1.11839 0.0492757 -0.783681)
(1.13201 0.0499093 -0.991104)
(0.135142 0.0762387 -0.500206)
(0.219422 0.0984925 -0.468622)
(0.286987 0.128218 -0.423008)
(0.341794 0.098325 -0.378913)
(0.34703 0.0701504 -0.276633)
(0.444909 0.045543 -0.258598)
(0.544166 0.0313075 -0.288126)
(0.669888 0.0176605 -0.336352)
(0.811625 0.0441239 -0.409257)
(1.06578 0.124009 -0.76583)
(1.03323 0.0632371 -0.969828)
(0.152588 0.0720441 -0.519022)
(0.210986 0.0703897 -0.307986)
(0.263547 0.0984706 -0.258969)
(0.295947 0.250991 -0.383702)
(0.328822 0.139438 -0.267903)
(0.411844 0.0938173 -0.253209)
(0.51679 0.0646089 -0.279531)
(0.654197 0.0445177 -0.325103)
(0.823642 0.0420695 -0.400197)
(1.04931 0.0433449 -0.829617)
(1.01138 0.0408486 -1.00547)
(0.120546 0.0841092 -0.329464)
(0.212409 0.0613432 -0.301313)
(0.324595 0.15916 -0.238979)
(0.232183 0.253932 -0.233529)
(0.260084 0.210899 -0.250044)
(0.382849 0.153381 -0.250011)
(0.49175 0.108295 -0.277655)
(0.640628 0.0791396 -0.322939)
(0.822508 0.0602893 -0.402538)
(1.03885 0.0571404 -0.845769)
(0.976432 0.0297523 -1.01266)
(0.093573 0.0985357 -0.355185)
(0.0836148 0.0334423 -0.256359)
(0.128548 0.299583 -0.233255)
(0.222327 0.292779 -0.401015)
(0.327548 0.1987 -0.271191)
(0.464145 0.141771 -0.286601)
(0.620554 0.105044 -0.332256)
(0.800948 0.070074 -0.415015)
(1.02087 0.0378492 -0.85751)
(0.956706 0.022956 -1.02395)
(0.0806123 0.210869 -0.341101)
(0.000525045 0.158624 -0.251925)
(0.0794579 0.295535 -0.263165)
(0.188796 0.339225 -0.437449)
(0.318402 0.234345 -0.286769)
(0.441852 0.17734 -0.300035)
(0.596518 0.134873 -0.343404)
(0.772498 0.0876652 -0.425212)
(0.994852 0.0496766 -0.864767)
(0.938831 0.0203579 -1.0272)
(0.0745591 0.343915 -0.324005)
(0.00959561 0.278806 -0.230987)
(0.0750043 0.320924 -0.289471)
(0.176618 0.423746 -0.478152)
(0.302697 0.278067 -0.296757)
(0.409533 0.222338 -0.303931)
(0.561954 0.17246 -0.343466)
(0.734266 0.110406 -0.420734)
(0.962541 0.0143112 -0.874827)
(0.911837 0.0183491 -1.03303)
(0.0746465 0.471391 -0.323234)
(0.00922442 0.40538 -0.228309)
(0.0885987 0.357544 -0.319977)
(0.228435 0.448125 -0.493093)
(0.422674 0.387629 -0.438949)
(0.531863 0.313472 -0.467303)
(0.705207 0.242654 -0.519431)
(0.828091 0.133606 -0.656219)
(0.953889 0.0456014 -0.885391)
(0.917492 0.0212304 -1.02765)
(0.128359 0.509596 -0.344757)
(0.300897 0.399883 -0.337652)
(0.112247 0.146564 -0.289938)
(0.0799776 0.373086 -0.352682)
(0.180893 0.471693 -0.544999)
(0.37117 0.407742 -0.508104)
(0.497335 0.357972 -0.533752)
(0.646016 0.293994 -0.585822)
(0.771673 0.209168 -0.722721)
(0.889451 0.119191 -0.898333)
(0.87019 0.0359422 -1.03791)
(0.108618 0.509451 -0.677276)
(0.130204 0.396165 -0.43103)
(0.123148 0.333618 -0.42959)
(0.0879702 0.46898 -0.640944)
(0.172877 0.494222 -0.608978)
(0.339668 0.454959 -0.579526)
(0.442888 0.408137 -0.610952)
(0.572196 0.352542 -0.663692)
(0.671116 0.249334 -0.785716)
(0.797712 0.210793 -0.927329)
(0.812293 0.0422705 -1.05024)
(0.148856 0.507302 -0.725609)
(0.162333 0.480745 -0.746824)
(0.0981136 0.479252 -0.757122)
(0.0788532 0.51721 -0.700846)
(0.181496 0.574186 -0.698498)
(0.305237 0.542272 -0.699491)
(0.40476 0.50822 -0.730762)
(0.489554 0.447694 -0.778099)
(0.640501 0.356126 -0.879074)
(0.680709 0.247796 -0.988045)
(0.685818 0.0652915 -1.11704)
(0.116234 0.546713 -0.799473)
(0.129757 0.524425 -0.815421)
(0.138506 0.527823 -0.811622)
(0.15646 0.552746 -0.798876)
(0.217682 0.57997 -0.80316)
(0.289496 0.552188 -0.817449)
(0.350425 0.514473 -0.847225)
(0.416149 0.445652 -0.894828)
(0.482377 0.363438 -0.944443)
(0.52556 0.204294 -1.07336)
(0.564846 0.0765077 -1.14686)
(0.114492 0.619591 -0.8526)
(0.128502 0.620595 -0.870954)
(0.138737 0.616753 -0.871626)
(0.162014 0.608352 -0.877548)
(0.204337 0.596995 -0.88942)
(0.246656 0.554797 -0.918627)
(0.295941 0.502357 -0.95577)
(0.334372 0.426458 -1.00204)
(0.400271 0.329709 -1.05814)
(0.427311 0.212076 -1.12657)
(0.458646 0.0791634 -1.19979)
(0.107125 0.64364 -0.951337)
(0.118664 0.642357 -0.96819)
(0.134054 0.63306 -0.972688)
(0.152658 0.616674 -0.983227)
(0.177251 0.591505 -1.00389)
(0.201362 0.546504 -1.02746)
(0.225838 0.492633 -1.05776)
(0.247664 0.413027 -1.09628)
(0.275093 0.329204 -1.13761)
(0.288803 0.196581 -1.20383)
(0.312683 0.0859537 -1.25724)
(0.103541 0.732076 -1.01709)
(0.109468 0.733154 -1.03593)
(0.115809 0.719182 -1.04166)
(0.124302 0.692809 -1.05299)
(0.134406 0.65658 -1.06851)
(0.143259 0.602089 -1.0909)
(0.155579 0.538661 -1.1179)
(0.163982 0.450963 -1.15328)
(0.181559 0.357937 -1.19321)
(0.187335 0.221791 -1.25147)
(0.203212 0.101066 -1.30633)
(0.129013 0.0891135 -0.522119)
(0.19293 0.0876169 -0.515062)
(0.261434 0.0837349 -0.497593)
(0.330787 0.0858351 -0.486173)
(0.41905 0.0770025 -0.481964)
(0.504513 0.0723083 -0.49979)
(0.615448 0.0663805 -0.537409)
(0.69537 0.0611621 -0.599338)
(0.821009 0.0569539 -0.676731)
(0.870963 0.0523231 -0.777926)
(1.0062 0.0495892 -0.866457)
(0.137781 0.102595 -0.548689)
(0.207569 0.105131 -0.534997)
(0.288938 0.109786 -0.514201)
(0.356351 0.106206 -0.496042)