/*--------------------------------*- C++ -*----------------------------------*\
| =========                 |                                                 |
| \\      /  F ield         | OpenFOAM: The Open Source CFD Toolbox           |
|  \\    /   O peration     | Version:  v1906                                 |
|   \\  /    A nd           | Web:      www.OpenFOAM.com                      |
|    \\/     M anipulation  |                                                 |
\*---------------------------------------------------------------------------*/
FoamFile
{
    version     2.0;
    format      ascii;
    class       surfaceScalarField;
    location    "20";
    object      phi;
}
// * * * * * * * * * * * * * * * * * * * * * * * * * * * * * * * * * * * * * //

dimensions      [1 0 -1 0 0 0 0];
oriented        oriented;


internalField   nonuniform List<scalar> 
104699
(
0.0134339
0.00742451
-0.00390599
0.0182306
0.00695223
-0.00323907
0.0249322
0.00448412
-0.00269055
0.00727073
0.000718421
-0.000230402
0.00786402
0.00727379
0.00794488
0.000818135
0.000803657
0.000936466
0.00814832
0.00124595
-1.08174e-05
0.0108383
0.00133428
-0.0004669
-0.00959557
-0.012045
0.0132542
0.0013895
-0.000483668
-0.0146384
0.0160459
0.00145774
-0.000741583
-0.0177215
0.019499
0.0015174
-0.00116677
0.106267
0.00236377
-0.023935
0.00445846
0.0021195
0.00348437
-0.0216584
-0.0220803
-0.021154
-0.0214349
0.0158274
-0.0221069
0.0130463
0.00751097
-0.00469515
0.017509
0.00687483
-0.00438497
0.00504431
0.00455263
-0.00255457
0.00491189
0.00508456
0.00495476
0.0057691
0.000278465
-0.000284704
0.00915291
-0.00127137
-0.000242255
-0.000349452
-0.00728965
0.0120983
-0.000445107
-0.0108088
5.3392e-05
-0.000128774
-0.000108316
3.91669e-05
-0.000699818
-0.0132621
0.0144772
-0.0006743
0.000186038
-1.13342e-05
5.70073e-06
0.000174556
-0.000895699
-0.0158401
0.0172855
-0.000990366
0.00026483
2.63387e-05
4.0996e-05
0.000256258
-0.00104351
-0.018895
0.0202036
-0.00139658
0.000588476
0.000200379
0.000207571
0.000566446
-0.00147491
-0.0209535
0.0199111
-0.00156362
0.00123155
0.00118314
0.00127965
0.00127542
0.00360156
-0.0287042
-0.0206716
-0.0194931
-0.0201033
-0.0184931
0.00352699
0.00297787
0.00312179
0.0128611
0.00829413
-0.00520547
0.0168775
0.00769209
-0.00483352
0.00454556
0.00753118
-0.00429844
0.00444331
0.00467408
0.00453461
0.00463288
0.000292996
-0.000270062
-0.000110104
0.000390507
-0.00112672
0.00110204
-0.000387373
2.15842e-05
8.34175e-05
-0.000395577
0.00042907
-0.000111363
-5.5353e-06
1.59627e-05
-0.000447935
0.000446084
-7.80938e-06
-6.29428e-06
1.64298e-05
-0.00052417
0.000525081
-8.2913e-06
-9.04427e-06
-1.967e-06
-0.000648987
0.000661074
2.41135e-06
-1.25289e-05
-0.000605917
-0.00196729
0.00263781
0.0022672
-0.000494011
-0.000616406
-0.00060751
-0.000613854
-0.0133793
0.0176011
0.00321704
-0.00383734
0.010851
0.0107054
-0.0048267
0.0147868
0.00204175
-0.00465083
0.00209314
0.00206645
0.00220548
0.00396086
0.00243454
-0.00385425
0.00381729
0.00408028
0.00392462
0.00261385
0.00256446
0.00277613
-0.000843322
0.00346841
0.00154499
-0.000209201
4.0071e-05
-0.000682107
0.000590755
5.37575e-05
-2.43921e-06
-0.00137312
-0.000279493
0.00129
0.00110122
-5.47845e-05
-0.000285517
-0.000203874
-0.000194476
-0.0108295
-0.00279298
0.0158684
0.00199115
-0.00423716
0.00285793
0.00292388
-0.0047793
0.00307737
0.00299256
0.00326803
0.0029179
0.00294991
0.00292146
0.00305925
0.00221004
-0.000369658
-0.00337269
0.00359375
0.00250301
-0.000289593
-0.00244601
-0.00342001
0.00269395
0.00333655
-0.000164536
-0.000433738
-0.000392923
0.000299571
0.00052832
-1.22928e-06
-0.000666529
-0.000281777
0.0011407
0.000566401
-8.63311e-05
-0.000282344
-0.000197759
-0.00019245
-0.0101164
-0.00146295
0.0150753
0.00100708
-0.00450309
0.00241053
0.00293428
-0.000314512
0.00345804
-0.000310747
-0.00232119
-0.00281681
0.000511147
0.000484677
0.000484011
0.000510871
-0.00419753
0.00423977
-0.000254083
0.000537605
0.000557409
0.000977432
0.000918298
-0.00277889
-0.00335598
-0.00434815
0.00226469
0.00557953
-0.000140043
-0.000823386
-0.000296381
0.000216696
0.000901413
1.67141e-06
-0.000359473
-0.000267743
0.00109976
0.000304684
-0.000132631
-0.000267685
-0.000190359
-0.000186623
-0.00985332
-0.000705822
0.0147209
0.000482898
-0.00464481
0.00190506
0.0038039
-0.000355254
-0.00323572
-0.000535364
-0.000336134
0.000238255
0.000672931
-3.96846e-05
-0.000586121
-0.0066438
0.00158539
0.0070587
5.86314e-05
-0.000473787
-0.000549396
-0.000449564
-0.00115095
-0.000157654
0.000120153
0.0011701
1.83463e-05
-0.000190149
-0.000257433
0.00108471
0.000159052
-0.000168623
-0.00025691
-0.000186676
-0.000184032
-0.00974334
-0.000327561
0.0145729
0.00021474
-0.00471693
-0.00480325
0.00142852
0.00596301
-0.00046394
-0.00111118
-6.86054e-05
4.23973e-06
0.00119992
-2.42806e-05
-0.00102048
-0.00708523
0.00349611
0.0070889
-4.29374e-05
-0.00103989
-0.000710453
-0.00068602
-0.00130207
-0.000272126
0.000200887
0.00132425
4.90568e-05
-9.23702e-05
-0.00024967
0.00108121
7.40621e-05
-0.000194333
-0.000249276
-0.000185671
-0.000184022
-0.00971118
-0.00013289
0.0145218
7.26183e-05
-0.00475053
-0.00718331
0.00144246
0.00841025
-0.000520955
-0.00148503
-9.96231e-05
4.97537e-05
0.00156283
-2.79006e-05
-0.000946756
-0.00736959
0.00288731
0.00803547
-0.00020056
-0.000925862
-0.000775326
-0.00070455
-0.00151193
-0.000159699
0.000121855
0.0015246
2.52135e-05
-3.15529e-05
-0.000243904
0.0010852
1.82264e-05
-0.000213118
-0.000243204
-0.000186245
-0.00018547
-0.00972843
-3.01939e-05
0.0145202
3.66556e-06
-0.00476538
-0.00960312
0.00183183
0.0105199
-0.000561367
-0.00193046
-0.000187431
0.000125415
0.00203635
-4.38517e-05
-0.000462239
-0.00894482
0.000907437
0.00979998
-0.000555658
-0.000200979
-0.000404147
-0.000139499
-0.00168515
-1.1322e-05
1.86317e-05
0.00169034
-1.2478e-05
2.27337e-05
-0.000242065
0.00108212
-3.53397e-05
-0.000213984
-0.000242835
-0.000185548
-0.000185138
-0.00971115
2.2051e-05
0.0145156
-6.18958e-05
-0.00476467
-0.0109113
0.00303509
0.0106059
-0.000590765
-0.00192799
0.00925107
-0.0006321
-0.00218598
-0.00192518
-0.00219292
0.000990862
0.000852406
0.000882392
0.000965019
-0.00407756
-0.0010187
-0.000352157
0.000109241
0.0013094
-4.77273e-05
0.0008861
-0.0103565
-0.000522746
0.0105763
-0.000583071
-0.00184207
9.13113e-05
-5.85536e-05
0.00184123
-3.18777e-05
7.6263e-05
-0.000246982
0.00107748
-9.17677e-05
-0.000199786
-0.000247614
-0.000183601
-0.000184053
-0.0097089
0.000116902
0.014537
-0.000188528
-0.00475653
0.0013567
0.0542875
-0.00978289
-0.0110933
-0.0112197
-0.0108706
-0.0109764
0.00254669
0.00146744
0.00264325
-0.00966775
0.00141726
0.0103839
-0.000776709
-0.00942779
-0.00121415
0.000648365
0.0107374
-0.000743735
-0.0107668
0.000354737
0.0113932
-0.000667263
-0.000313675
-0.00194782
2.46527e-05
-1.6214e-05
0.0019795
-4.00805e-05
0.000150645
-0.000253146
0.00107991
-0.000173409
-0.000182405
-0.000253702
-0.000183246
-0.0001847
-0.00975943
0.000283561
0.0146205
-0.000404797
-0.00473992
0.0126195
0.0605941
-0.0106031
0.00778498
0.0614274
-0.0111457
-0.0113619
-0.0116627
-0.0110539
-0.0113689
0.000255149
0.0642356
-0.0109602
0.00181323
0.00041021
0.00193155
-0.0124703
-0.0127478
-0.0122027
-0.0124797
-0.0118455
0.000636862
0.0122188
-0.000755009
-0.00215452
-0.000100775
8.76737e-05
0.00220978
-4.21386e-05
0.000266468
-0.000257997
0.00110172
-0.000311673
-0.000175953
-0.000255808
-0.000183522
-0.000183334
-0.00992092
0.000564517
0.0147976
-0.000729541
-0.0047116
0.00905571
0.072655
-0.0128006
0.0103873
0.0729978
-0.0129019
0.00236731
0.0737045
-0.0123483
0.00406912
0.002486
0.0043446
-0.0128035
0.00266494
0.0133718
-0.000865826
-0.0024693
-0.000578901
0.000531075
-3.73918e-05
0.00255455
0.000563337
-0.000266304
0.00129474
-0.00065008
-0.000224403
-0.000269631
-0.000236219
-0.000211539
-0.0102305
0.000907496
0.0149745
-0.00100728
-0.00464429
0.0113195
0.0840714
-0.0144135
0.0150999
0.0838165
-0.0145987
0.0044029
0.0830534
-0.0141321
0.00573098
0.00409085
0.00565839
-0.0135085
0.00511936
0.0138644
-0.00107226
-0.00255339
0.0121835
-0.00208203
-0.00251635
-0.00250504
-0.00242846
0.00151635
0.00148035
0.00166315
0.00162939
-0.00638745
-0.000284448
-0.00194523
0.00185943
-0.000343524
0.00152462
-0.000258905
-0.000288389
-0.000263585
-0.000175685
-0.00153448
0.00148581
-0.000386106
0.0011319
-0.000172223
-0.00017621
-0.000173092
-0.000147633
-0.0014617
0.00149174
-0.000392874
0.000946408
-0.000142944
-0.00014767
-0.000145453
-0.000102088
-0.00169937
0.00182325
-0.000399657
0.000662252
-8.72934e-05
-0.000104224
-9.29701e-05
0.000266351
-0.00222255
0.0100535
0.00183021
-0.00420392
0.000213064
0.000279306
0.000252348
-0.00215404
-0.00219481
-0.00211964
0.00411502
-0.0393743
-0.0126092
-0.0127116
-0.0119896
-0.0121534
0.000851378
0.00100165
5.86084e-05
0.000539052
0.0111613
0.103012
-0.0217682
0.0158227
0.101706
-0.0225508
0.0209676
0.0997473
-0.0218386
0.00378686
0.0918457
-0.0276185
-0.0156056
-0.0155169
-0.0151174
-0.0148436
0.00538857
0.00351451
0.00513431
-0.0129558
0.00457469
0.0140573
-0.00188919
-0.0102197
-0.00537573
0.00546353
0.0123878
-0.00225596
-0.00876155
-0.00555585
0.00557212
0.0113433
-0.00259822
-0.0075955
-0.00578492
0.00617264
0.0100835
-0.00287586
-0.00600079
-0.00686533
0.00811313
0.0081897
-0.00343684
0.0497541
0.0386229
-0.0418339
-0.0045555
-0.00331548
-0.00414315
-0.00317712
-0.00912603
-0.00688803
-0.00866422
-0.00667373
0.0264933
-0.0413253
0.00987614
-0.0251487
0.0115463
-0.025544
0.0155952
-0.0265644
0.0201027
-0.0269154
0.0166726
-0.0347674
-0.0169022
-0.0166544
-0.0164093
-0.0159526
0.0139307
-0.0353315
-0.0158259
-0.0155039
-0.0152311
-0.0148845
0.0144452
-0.0371288
-0.0147502
-0.0144083
-0.0141422
-0.0138076
0.0163749
-0.0379318
-0.0133754
-0.0129033
-0.0128606
-0.0123532
0.0197766
-0.0390425
-0.0113162
-0.0106055
-0.011012
-0.01012
0.0378007
-0.041083
-0.0422845
0.0133287
0.0077603
-0.00804646
0.0186731
0.00711918
-0.00719614
0.0246159
0.00571578
-0.00585587
0.0354196
0.00165471
-0.00422031
0.0103264
-0.000124605
-0.00288954
0.000902192
0.000413066
0.000585696
8.46608e-05
0.000781872
0.000475704
0.00129448
0.0109381
0.0101887
0.0108875
0.00101499
0.0106222
0.0015684
-0.000767698
0.0010393
-0.0116719
0.0125987
0.00143276
-0.00128279
0.0015382
-0.013898
0.0149816
0.00147993
-0.0019776
0.00241005
-0.0164558
0.0178976
0.00158761
-0.00331208
0.0914357
0.002147
-0.0385159
0.00345032
0.00155039
0.0027572
-0.0197752
-0.0199657
-0.0192415
-0.0193477
0.0140948
-0.034695
0.0134531
0.0072998
-0.00924949
0.0180957
0.00669869
-0.00860679
0.024287
0.00399153
-0.00702118
0.00767976
2.12199e-05
-0.00636744
0.00731203
0.00763643
0.00695799
-1.24808e-05
0.000198238
2.10501e-05
0.000545689
0.00083399
0.000380936
0.000734868
0.000476933
0.00884978
-0.00111978
-0.000651647
0.000827619
0.0116314
-0.000975742
-0.0104004
-0.000109213
5.96735e-05
6.45422e-05
-0.000101772
-0.000995902
0.00123061
-0.012732
0.0137966
-0.00162182
-2.8638e-05
0.000152376
0.000137376
-4.03726e-05
-0.000894039
0.00182771
-0.015021
0.0162445
-0.00246688
4.24999e-06
0.000228817
0.000197877
-2.35567e-05
-0.000991637
0.00266466
-0.0175795
0.0186714
-0.0036326
0.000199708
0.00055272
0.000493547
0.000144549
-0.0015145
-0.0190601
0.00353621
0.017803
0.00478246
-0.0049145
0.00341454
-0.0454316
-0.0177043
-0.0163156
-0.0174365
-0.016132
0.00325143
0.00239291
0.00249919
0.0128372
0.00758839
-0.00989221
0.0168371
0.00714685
-0.0092815
0.00444225
0.00670868
-0.00828531
0.00441979
0.00476751
0.00447745
0.000473011
0.00464807
9.8697e-05
-0.000756089
1.94463e-05
0.00029926
-0.00119113
0.00122114
-0.000336465
-1.22089e-05
-2.75573e-05
0.00021037
-0.00202738
0.00220765
-2.95369e-05
-6.44765e-05
-8.87639e-05
-8.55846e-05
-6.27978e-05
2.12191e-06
-3.20659e-05
-1.95894e-06
2.21437e-05
-0.00238028
5.96016e-05
0.00244614
-0.00021558
-8.84323e-07
-2.23929e-05
-3.25007e-06
-2.26937e-05
4.7153e-05
2.41519e-05
4.59116e-05
3.89593e-05
-0.00277219
6.05104e-05
0.00288051
-0.000328866
-3.61782e-07
-2.64527e-05
-2.18364e-06
-2.8118e-05
6.94847e-05
4.10642e-05
6.76714e-05
7.17922e-05
-0.00341518
-8.91029e-05
0.00363472
-0.000524671
2.79101e-05
-1.33484e-05
2.30198e-05
-1.66403e-05
0.000113103
7.75382e-05
0.000110902
0.000769618
-0.00320955
-0.00160329
0.00283501
0.00204767
-0.000839428
-0.0114998
0.00625996
0.0130722
0.00320659
-0.00762445
0.0111431
0.00962477
-0.00956993
0.01497
0.00191674
-0.00910398
0.00202321
0.00178181
0.00205098
0.00385667
0.00241367
-0.00789623
0.00377502
0.00402149
0.00390562
0.00264125
0.00237966
0.00272714
0.000365398
-0.000778179
0.00335646
0.00149994
-0.000586922
-1.1019e-05
7.09307e-05
-0.000668681
0.000576007
2.89849e-05
3.82265e-06
0.00103302
-0.000109352
-0.00143942
0.000938034
0.0011883
-0.00128981
-9.18921e-05
-0.000122364
-0.000106525
-0.00791167
0.0069104
-0.00279089
0.01031
0.00203838
-0.00855633
0.00299925
0.00263893
-0.00959823
0.00319217
0.00296646
0.00332802
0.00259828
0.0026035
0.00254242
0.000641588
0.0032011
0.00206243
-0.0009892
0.000510605
-0.00344974
0.00360664
0.0025114
-0.000765321
0.000332876
-0.00244919
-0.00334203
0.00258229
0.00336678
-0.000490778
-1.57222e-05
-0.000415761
-0.000365199
0.000272919
0.000515202
8.56004e-06
0.00112202
-0.000632589
-8.21086e-05
0.00066849
0.000522001
-0.00135616
-7.84274e-05
-7.95725e-05
-8.37128e-05
-0.00657294
0.00737053
-0.00151428
0.00887693
0.001065
-0.00922533
0.000607686
0.00247504
0.00263283
-0.000969964
0.000639761
0.00367237
-0.000983442
-0.00208056
-0.0029555
0.000432414
0.000421861
0.000439906
0.00041322
-0.00441756
0.000503116
0.0043032
-0.000732827
0.000576141
0.000569281
0.00103069
0.00101516
-0.0028472
-0.00324292
0.000278041
-0.00440912
0.00213036
0.00564009
-0.000396461
-2.169e-05
-0.000820893
-0.000255926
0.000179044
0.000901643
1.78423e-05
0.00121921
-0.000314912
-6.91734e-05
0.000561803
0.000261364
-0.00145262
-6.58511e-05
-6.94269e-05
-7.04355e-05
-0.00593311
0.00764854
-0.000758286
0.00814488
0.000530178
-0.0096323
0.00072885
0.00189735
0.00352197
-0.00112404
-0.00290711
0.00015337
-0.000449154
-0.000364523
0.000285648
0.000581167
-0.000206561
-0.000409171
5.91143e-05
-0.00666186
0.000747556
0.00732399
-0.000188362
-0.000240895
-0.000388993
-0.000241408
-5.44392e-05
-0.00115007
-6.87463e-05
4.86145e-05
0.00117381
5.08235e-05
0.00128676
-0.000155158
-6.06643e-05
0.000508486
0.000127266
-0.00152211
-5.88293e-05
-6.26026e-05
-6.31919e-05
-0.0056061
0.00780694
-0.000368159
0.0077883
0.00024944
-0.00987054
0.000873542
-0.00457836
0.00134108
0.00574752
-0.00125908
7.25298e-05
-0.00105932
-4.84753e-05
-7.57698e-06
0.00115726
-0.000114301
-0.000185662
0.000213365
-0.00770439
0.0002467
0.00801103
-0.000221553
-0.000110179
-0.000159254
-9.00729e-05
-8.05441e-05
-0.00130685
-1.74957e-05
1.39248e-05
0.00132165
6.92999e-05
0.00132842
-7.0274e-05
-5.59678e-05
0.000481569
5.46399e-05
-0.00156498
-5.50972e-05
-5.90014e-05
-5.93533e-05
-0.00545136
0.00788988
-0.00016133
0.00762816
9.42262e-05
-0.00999971
0.000979591
-0.0069469
0.00135957
0.0081563
-0.00139649
0.00010925
-0.00147126
-8.46087e-05
4.1429e-05
0.00155484
-0.000149609
-0.000270525
0.000457839
-0.00843165
0.000304746
0.00899824
-0.000558317
-0.000157923
-0.00024498
-9.73346e-05
-3.25774e-05
-0.00147634
1.42049e-06
-1.31327e-06
0.00148886
1.99552e-05
0.00135527
-1.93824e-05
-5.37082e-05
0.000470222
9.23415e-06
-0.00159316
-5.34029e-05
-5.74802e-05
-5.76331e-05
-0.00540266
0.00793136
-4.24124e-05
0.00758082
-3.82276e-07
-0.0100668
0.00105129
-0.00932014
0.00177555
0.0101784
-0.00149618
0.000153496
-0.001924
-0.000177702
0.000118801
0.00202542
-0.000195974
-0.000181654
0.000932157
-0.00959669
0.000110557
0.0100088
-0.00119936
4.34223e-05
-0.000196173
7.89877e-05
5.66578e-05
-0.00164742
3.1837e-05
-2.11681e-05
0.00165551
-7.5376e-05
0.00135251
1.95945e-05
-5.29845e-05
0.000469053
-3.01058e-05
-0.00159082
-5.31297e-05
-5.71943e-05
-5.69636e-05
-0.00541441
0.00792433
4.50629e-05
0.00759464
-9.95613e-05
-0.0100502
-0.0104888
0.00110377
0.00298896
0.0101128
-0.00158117
0.00115812
-0.00188916
0.00879111
-0.00162174
-0.00214191
-0.00187385
-0.00212776
0.000974823
0.000866231
0.000965125
0.000864741
-0.00396569
-0.00093973
-0.000395142
0.000228986
0.000151938
0.00124647
-0.000292453
0.000904267
0.00108388
-0.0102364
-0.000513987
0.0102841
-0.00152171
0.000119623
-0.00179503
9.73647e-05
-6.53573e-05
0.00179261
-0.00014919
0.00133701
6.84225e-05
-5.36218e-05
0.000477068
-8.29775e-05
-0.00157674
-5.41681e-05
-5.77709e-05
-5.72426e-05
-0.00550976
0.00789481
0.000166463
0.00769675
-0.000252113
-0.00999621
0.0014715
0.0500999
-0.0179729
-0.0104589
-0.0105633
-0.0102625
-0.0103565
0.00258936
0.00146991
0.00255679
-0.009117
0.00143903
0.0015108
0.00972579
-0.00208713
-0.00891931
-0.00126696
0.00140496
0.000711647
0.0101009
-0.00203122
0.00126139
-0.0104082
0.000424903
0.0109017
-0.00178405
-0.000395687
0.000155917
-0.00190491
1.14389e-05
-9.17678e-06
0.00193884
-0.000192073
0.00132071
0.000147193
-5.52857e-05
0.000497634
-0.000174325
-0.00156048
-5.66879e-05
-5.99739e-05
-5.88178e-05
-0.00573518
0.00784647
0.000362351
0.00793291
-0.000512057
-0.00989451
0.0122398
0.055239
-0.0196605
0.00806295
0.0558304
-0.0206111
-0.0105492
-0.010829
-0.0102812
-0.0105288
0.000512969
0.058593
-0.0203614
0.00208905
0.000589408
0.00204291
-0.0116065
-0.0118774
-0.0113061
-0.0115731
0.00141631
-0.0113011
0.000881226
0.011564
-0.00204739
0.000158869
-0.00211612
-0.000161124
0.000138696
0.00217732
-0.000197607
0.00133021
0.000334448
-5.41306e-05
0.000569811
-0.000431984
-0.0015725
-5.82685e-05
-5.85941e-05
-5.90584e-05
-0.00619668
0.00779929
0.00070591
0.00836739
-0.00095549
-0.00972038
0.00921512
0.0645791
-0.0230408
0.0110781
0.064465
-0.0233994
0.00268246
0.0654153
-0.0225429
0.00454299
0.00270065
0.00452428
0.00164472
-0.0120702
0.00318803
0.0122718
-0.00235172
-0.00239857
8.88682e-05
-0.00079038
0.000742751
-5.50792e-05
0.00241243
0.00082136
-0.00011867
0.00132239
0.00104288
-0.000879288
-0.0014701
-0.000272898
-0.000147551
-0.000298157
-0.00728372
0.00786512
0.0011579
0.00910769
-0.0010627
-0.00978433
0.0114431
0.0730257
-0.0259825
0.0153955
0.0724743
-0.0265603
0.0216511
0.0715241
-0.0264963
0.00611402
0.066418
-0.0297856
-0.0131378
-0.0133347
-0.0126856
-0.0127859
0.00650806
0.00486759
0.00602987
0.00242321
0.00289056
0.00390743
0.00422209
-0.011233
0.00298702
0.00709799
0.0111728
-0.00391084
-0.00157644
0.000598646
0.00703607
0.00872702
-0.00532763
-0.00138676
-0.00166603
-0.00156482
-0.00736242
0.000838354
0.000776058
0.000907932
-0.00114142
0.000978173
-0.00680245
0.00659372
0.00710986
-0.00656288
-0.000994536
-0.00126018
-0.00122301
0.00110034
0.00107441
0.00112798
-0.000930043
0.00108556
-0.00666211
0.00692877
0.00594695
-0.0070428
-0.000788495
-0.00104726
-0.00100965
0.00117467
0.00115174
0.00119266
-0.000604997
0.00122198
-0.00746926
0.00824178
0.00411236
-0.00767376
-0.000406409
-0.000743019
-0.000592064
0.00132353
0.00126482
0.001325
0.00013198
-0.0088764
0.00746038
0.00827743
0.00194797
-0.00894149
0.00324149
-0.0579629
0.00061219
0.000918139
-0.000586724
-0.000207938
-0.00877022
-0.00850737
-0.0092171
-0.00893384
0.0107607
0.0837405
-0.0349137
0.0137578
0.0827152
-0.0357887
0.0186032
0.0805709
-0.0357307
0.0223195
0.0744696
-0.0393864
0.0225777
0.0674011
-0.0402386
-0.0122371
-0.0112629
-0.0120507
-0.0115041
0.0037364
0.00429885
0.00555535
0.00604368
0.0223564
0.0600209
-0.043974
-0.010036
-0.0094293
-0.00984822
-0.00943426
0.0045148
0.00502486
0.00651123
0.00687129
0.0234297
0.0531666
-0.0468529
-0.0084945
-0.0078555
-0.00832359
-0.00795187
0.00515023
0.00569307
0.00704957
0.00734565
0.0269022
0.0457121
-0.0497861
-0.00712879
-0.00622593
-0.006954
-0.00646452
0.0057052
0.00643113
0.00745155
0.00778686
0.0301901
0.0368088
-0.0530642
-0.00509474
-0.00371224
-0.00498328
-0.00422366
0.00685552
0.00731776
0.0082538
0.00855456
0.035078
0.0239691
-0.0591872
-0.00338903
-0.00175089
-0.00369467
-0.00266909
0.0142462
-0.0600817
0.00945598
-0.0399016
0.010727
-0.040595
0.0124581
-0.0415312
0.013914
-0.0426417
0.0143692
-0.0476028
0.0145944
-0.0494359
0.0151049
-0.051866
0.016724
-0.0538282
0.0186013
-0.0560822
0.0258354
-0.0597996
-0.0623012
0.0133897
0.00785994
-0.0123525
0.0187617
0.00733828
-0.0114052
0.0256268
0.0058067
-0.0100358
0.0360519
0.00277495
-0.0089492
0.048067
-6.15562e-05
-0.00763398
0.000563453
9.03004e-05
0.000590822
0.0595605
6.87959e-05
-0.0101696
0.000922479
8.99766e-05
0.000926079
0.000594648
0.00146767
0.000986379
0.00207444
0.0701154
0.000257973
-0.0149891
0.00126647
0.000211973
0.0012486
0.00167275
0.00270668
0.00221698
0.00332586
0.0812134
0.000321161
-0.0207113
0.00160439
0.000173139
0.00153907
0.00261936
0.00393737
0.00325161
0.00466236
0.0879207
0.00127578
-0.0290335
0.00281152
0.000876764
0.00272297
0.00470522
0.00601962
0.00548621
0.00691211
0.0877556
0.00204218
-0.0395715
0.00361425
0.00120137
0.00279348
0.0115846
-0.0408972
0.0135784
0.00713949
-0.0136681
0.0183397
0.00667591
-0.0127055
0.0245163
0.00413074
-0.0115215
0.0075549
0.000234583
-0.00965042
0.00733711
0.00738464
0.00723268
0.000177656
0.000406865
0.000246151
0.00072629
0.00858329
-0.000735885
-0.00108027
0.000951691
0.0109147
-0.000417016
-0.00142411
-0.00995635
0.00181914
-0.0119467
0.0128599
-0.000138396
-0.00233576
0.00283675
-0.0139667
0.0149204
-2.9676e-05
-0.00343949
0.00426479
-0.0159779
0.0169949
0.000946494
-0.00495243
-0.0173614
0.0061039
0.0163902
0.00303567
-0.00612604
0.00224543
-0.0537507
-0.0164001
-0.0161764
-0.0165463
-0.0161171
0.00246332
0.0013115
0.00123411
0.0130902
0.0069658
-0.0143696
0.0173223
0.00677207
-0.0136097
0.00474459
0.00638856
-0.0119235
0.00448417
0.00487857
0.00459555
0.00105072
0.00503209
0.000257167
-0.00136062
0.000171495
-0.000393163
0.00127429
-0.00588809
0.00151141
0.00153422
0.00147702
0.00156349
-0.000301724
-0.000323214
-0.000325765
-0.000299845
0.000114308
-0.00188127
0.000220137
0.00197354
-0.000282619
-0.000144059
0.000349822
-0.00219372
0.000128406
0.0022388
-0.000146821
-0.000376421
0.000527457
-0.00254199
0.000120496
0.00261828
-0.000164665
-0.000559506
0.000800626
-0.00306868
-4.93258e-05
0.00320738
-3.88422e-05
-0.000851106
-0.00315668
0.00122657
-0.00106385
0.00141325
-0.00123351
0.00281425
-0.01148
0.00876396
0.011693
0.00265405
-0.00938553
0.0116703
0.00844305
-0.0142814
0.0157438
0.0017358
-0.0134682
0.00189941
0.00154736
0.00187991
0.00406685
0.00232565
-0.0118926
0.0039609
0.00419981
0.0041621
0.0025831
0.00219412
0.00263598
0.00084466
-0.000814421
0.00368208
0.00146215
-0.00110759
2.18202e-05
0.000127229
-0.000757016
0.000657107
-1.90371e-05
-3.00733e-05
0.00178314
-0.000228858
-0.00159436
0.00104654
0.00130734
-0.0018067
-0.000179258
-9.3924e-05
-0.000233911
-0.00694121
0.0097466
-0.0028205
0.00830727
0.00219598
-0.0104882
0.00313182
0.00226489
-0.0145039
0.00332831
0.0030435
0.0034508
0.00218823
0.00222064
0.00214573
0.00134224
0.00337185
0.00184753
-0.00169406
0.00103045
-0.00362437
0.0037903
0.00243025
-0.00130105
0.000667358
-0.00237875
-0.00351467
0.00280453
0.00327597
-0.000854484
1.05508e-05
-0.000358391
-0.000434103
0.000337154
0.000463339
-1.85317e-05
0.00189647
-0.000668066
-6.28031e-05
0.000512446
0.000536114
-0.00202871
-5.75502e-05
-6.17993e-05
-6.61444e-05
-0.00501593
0.0105812
-0.00165224
0.00640935
0.00117309
-0.0114955
0.00134077
0.00254443
0.00222453
-0.00173832
0.0013325
0.00390854
-0.00168479
-0.00180415
-0.00311622
0.000339967
0.000339831
0.000353863
0.000330486
-0.00467379
0.000960296
0.00451593
-0.00118854
0.000578342
0.000557416
0.00102179
0.00101878
-0.00279025
-0.00338537
0.00052114
-0.00431826
0.00229096
0.00554271
-0.000651242
-1.09694e-05
-0.000789598
-0.000281172
0.000203017
0.00087012
8.62281e-06
0.0020098
-0.000310269
-4.80264e-05
0.000389528
0.000256932
-0.00214737
-4.45092e-05
-5.25209e-05
-5.35882e-05
-0.00416535
0.011087
-0.000833595
0.00540781
0.000582474
-0.0120783
0.00154824
0.0019404
0.00310641
-0.00199895
-0.0024795
0.000324858
-0.000347262
-0.000397553
0.000335616
0.000457153
-0.000372868
-0.000354578
0.000338788
-0.00651774
0.000764067
0.00710302
-0.000536749
-0.000213655
-0.000365344
-0.000217951
-3.30036e-05
-0.00112224
-6.51743e-05
5.48448e-05
0.00114056
2.49873e-05
0.00208879
-0.00014768
-3.80011e-05
0.000330318
0.000117679
-0.00222641
-3.6457e-05
-4.3855e-05
-4.43997e-05
-0.00375338
0.0113856
-0.000400726
0.0049128
0.000268413
-0.0124127
0.00165103
-0.00418477
0.00133923
0.0053757
-0.00205618
0.000214386
-0.000952806
-4.93695e-05
-2.33083e-05
0.00107337
-0.000262111
-0.000123984
0.000369852
-0.0073811
0.000281094
0.00770278
-0.000630224
-9.8278e-05
-9.64751e-05
-2.38489e-05
-2.42685e-05
-0.00125305
-1.53432e-05
2.09514e-05
0.00126381
7.82882e-06
0.00213814
-6.37204e-05
-3.38665e-05
0.000305305
5.04458e-05
-0.00228094
-3.30213e-05
-4.12627e-05
-4.11091e-05
-0.00356476
0.0115492
-0.000168892
0.00469094
8.98319e-05
-0.0125964
0.00179862
-0.00657124
0.00135058
0.00776499
-0.00218937
0.00026698
-0.00139417
-9.4322e-05
4.6817e-05
0.00148008
-0.00030534
-0.000181588
0.000753788
-0.00813813
0.000357947
0.00863009
-0.00103336
-0.000115642
-0.000201653
-7.1532e-05
3.9244e-05
-0.00140811
7.30294e-07
9.21404e-06
0.00141582
-5.69308e-05
0.0021724
-1.28367e-05
-3.01632e-05
0.000295277
9.32728e-07
-0.0023222
-3.01323e-05
-3.65652e-05
-3.67271e-05
-0.00352029
0.0116304
-2.48453e-05
0.00463268
-3.48313e-05
-0.0126831
0.00192268
-0.00889908
0.00177245
0.00971968
-0.00232618
0.000326148
-0.00184247
-0.000187976
0.000123357
0.00194568
-0.00036471
-0.000143187
0.00148336
-0.00912211
0.000272127
0.00943329
-0.00180252
3.44515e-05
-0.000203598
4.8138e-05
0.000146558
-0.00155786
1.07441e-05
1.61818e-06
0.00156429
-0.000165334
0.00217221
3.15332e-05
-3.11229e-05
0.000297103
-4.0825e-05
-0.00232088
-3.15627e-05
-3.85427e-05
-3.79425e-05
-0.00358566
0.011597
0.000103542
0.00469797
-0.000187344
-0.0126255
-0.00997172
0.00203837
0.00297049
0.00955659
-0.00245888
0.00206885
-0.0018088
0.00829938
-0.00247043
-0.00205163
-0.00179292
-0.00203982
0.000990516
0.000894435
0.000981927
0.000877284
-0.00394875
-0.000845509
-0.000454747
0.000465335
0.000212495
0.00113558
-0.000513085
0.000555056
0.00194349
-0.00959955
-0.000160136
0.00960982
-0.00234863
0.000244828
-0.00170003
4.11333e-05
-1.62061e-05
0.00169968
-0.000269407
0.00216679
8.73719e-05
-2.62113e-05
0.000309684
-0.00011059
-0.00234817
-2.56351e-05
-2.80812e-05
-2.52033e-05
-0.00380784
0.0115063
0.000290169
0.00493252
-0.000421888
-0.0124993
0.00163285
0.0457581
-0.0248475
-0.00978626
-0.00986989
-0.00957499
-0.00965193
0.00265635
0.0015473
0.00252111
-0.00847195
0.00272654
0.00172367
0.00894118
-0.0032866
-0.00813914
-0.00150048
0.00264131
0.000985989
0.00920904
-0.00319671
0.00230972
-0.00964947
0.000847111
0.0100145
-0.00279438
-0.000727467
0.00030122
-0.00180158
-0.000102133
8.85312e-05
0.00183888
-0.000324916
0.00220299
0.000237223
-7.58287e-06
0.000356263
-0.000295592
-0.0024417
-1.12169e-05
-1.77328e-05
-2.26596e-05
-0.00430197
0.0113192
0.000574875
0.00544094
-0.000808231
-0.0122248
0.0120731
0.0496452
-0.0272977
0.0086448
0.0498834
-0.0287426
-0.00962487
-0.00985184
-0.00934995
-0.00949707
0.000964862
0.0519204
-0.0284527
0.00242609
0.000879728
0.00224474
-0.0105051
-0.0107238
-0.0101384
-0.0103326
0.00275063
-0.0102441
0.0015044
0.0104438
-0.00348982
0.000307981
-0.0019708
-0.000390203
0.000365638
0.00202766
-0.000340268
0.00222395
0.00059442
-7.02378e-05
0.000612897
-0.000713201
-0.00237428
-7.42546e-05
-4.78148e-05
-0.00015143
-0.00529749
0.011043
0.00109594
0.00629337
-0.00132741
-0.0118073
0.00922691
0.0569374
-0.0312453
0.0107671
0.056762
-0.0318182
0.00294809
0.0573696
-0.0309298
0.00438275
0.00243619
0.00393786
0.0034036
-0.0105889
0.00375562
0.0105793
-0.0042015
0.00312442
-0.00216305
0.0100867
-0.00469963
-0.00215345
-0.00209362
-0.00205597
0.00118777
0.00133874
0.00105347
0.00123894
-0.00486437
0.000863386
-0.000293722
-0.00175767
0.00169301
0.00141929
-0.0010362
-0.000269587
-0.00031736
-0.000301169
0.00144634
-0.000232207
-0.00138896
0.00133701
0.00110773
-0.00153641
-0.000214598
-0.000260953
-0.00025796
0.00151506
-0.000218936
-0.00136206
0.00138525
0.000987943
-0.00161931
-0.000198445
-0.000246639
-0.000242877
0.00156758
-0.000172652
-0.00165712
0.00178179
0.000721189
-0.00170671
-0.000140788
-0.000199511
-0.000193774
0.00208979
0.00060111
-0.00180875
0.0079045
0.000383483
-0.0108371
0.000515805
0.00014768
0.000244707
0.00211569
0.00216135
0.00211858
-0.00173171
-0.0019821
-0.00192295
0.00304931
-0.0632269
-0.00795183
-0.00776732
-0.00897967
-0.00868631
0.0123128
0.0119392
0.0121174
0.0119177
0.000977907
0.00116898
-0.0003711
-0.000101273
0.0108754
0.0634371
-0.0350393
0.0142721
0.0629339
-0.0361288
0.0187576
0.06241
-0.0360221
0.00445776
0.0577559
-0.0408365
-0.0115385
-0.0116212
-0.0114256
-0.0112561
0.00543728
0.00348205
0.00451695
-0.00974723
0.005197
0.0050587
0.0101021
-0.00615288
-0.00818869
0.007093
-0.00566632
0.00570007
0.00871204
-0.00765017
-0.00696801
0.00821171
-0.00572351
0.00570035
0.00761303
-0.00883358
-0.00592043
0.00874352
-0.00586519
0.00608251
0.00645156
-0.00949195
-0.00414062
0.0092386
-0.00654296
0.00676698
0.00477395
-0.0100959
0.0369705
0.0148531
-0.0621161
-0.00175792
-0.000333683
-0.00295914
-0.00193864
0.011404
0.0114983
0.0110594
0.0114434
-0.00716631
-0.00606445
-0.00772477
-0.0071676
0.00545971
-0.0645856
0.0103936
0.0695286
-0.0430748
0.012882
0.0686227
-0.0439659
0.0173404
0.0668184
-0.0445973
0.0210525
0.0613836
-0.0467261
0.0206096
0.0557395
-0.0514871
-0.0111147
-0.0107791
-0.011335
-0.0108193
0.0200051
0.0497108
-0.0541307
-0.00985693
-0.00931145
-0.0100702
-0.00971088
0.0207966
0.0434046
-0.0568707
-0.0086269
-0.00798538
-0.00897039
-0.00859538
0.0221534
0.036462
-0.059226
-0.00725574
-0.0062917
-0.00767663
-0.00715451
0.023136
0.0279758
-0.0615079
-0.00547379
-0.00392238
-0.00590277
-0.0052156
0.0258395
0.0185461
-0.0655836
0.00887747
-0.0673888
0.00925677
-0.0484635
0.010286
-0.0493471
0.0116364
-0.0500395
0.0125509
-0.0515998
0.0129857
-0.0537384
0.013393
-0.0559413
0.0139679
-0.0582761
0.0150015
-0.0605902
0.0161224
-0.063236
0.019025
-0.0669313
-0.0701981
0.0131518
0.00798113
-0.0165476
0.0182469
0.00752886
-0.015533
0.0243607
0.00652808