/*--------------------------------*- C++ -*----------------------------------*\
| =========                 |                                                 |
| \\      /  F ield         | OpenFOAM: The Open Source CFD Toolbox           |
|  \\    /   O peration     | Version:  v1906                                 |
|   \\  /    A nd           | Web:      www.OpenFOAM.com                      |
|    \\/     M anipulation  |                                                 |
\*---------------------------------------------------------------------------*/
FoamFile
{
    version     2.0;
    format      ascii;
    class       volVectorField;
    location    "20";
    object      U;
}
// * * * * * * * * * * * * * * * * * * * * * * * * * * * * * * * * * * * * * //

dimensions      [0 1 -1 0 0 0 0];


internalField   nonuniform List<vector> 
34761
(
(0.126912 0.0744521 -0.0231896)
(0.191304 0.0669467 -0.0175395)
(0.24128 0.0449419 -0.0166231)
(0.353265 0.0554286 0.011558)
(0.341515 0.0521867 -0.00683201)
(0.478638 0.0591836 -0.00941474)
(0.590234 0.0632517 -0.0149156)
(0.720457 0.0653264 -0.0223768)
(0.883186 0.0664283 -0.0315932)
(1.14656 0.0295877 -0.145369)
(1.41478 0.139593 -0.161916)
(0.129123 0.0976504 -0.029287)
(0.179787 0.0954422 -0.0275595)
(0.236335 0.0607578 -0.008647)
(0.24212 0.0234528 -0.0122941)
(0.388823 -0.0347733 -0.00626604)
(0.543455 0.0048598 -0.0130786)
(0.651277 0.0196533 -0.0194061)
(0.780733 0.0280334 -0.0271382)
(0.936198 0.058794 -0.0340977)
(1.04041 0.154277 -0.0252624)
(1.28916 0.238442 -0.226315)
(0.131101 0.0825713 -0.0337889)
(0.17219 0.0667403 -0.0309352)
(0.228527 0.0453186 -0.0276305)
(0.208831 0.00508842 -0.00785179)
(0.204884 -0.0756429 0.00256052)
(0.329649 -0.0336414 -0.0022352)
(0.340704 -0.016507 -0.00341111)
(0.401744 -0.0189203 -0.00434236)
(0.500563 -0.0108367 -0.00530444)
(0.544343 0.446971 -0.0718053)
(0.631817 0.144428 -0.111873)
(0.110019 0.108938 -0.0301004)
(0.145317 0.112322 -0.028898)
(0.202589 0.129172 -0.0222549)
(0.179166 0.0546774 -0.00580942)
(0.121189 0.00635896 -0.00169685)
(0.197348 0.216432 0.0149326)
(0.554077 0.103874 -0.123301)
(0.134326 0.152685 -0.0298745)
(0.133656 0.0897219 -0.01109)
(0.166125 0.103504 -0.00820661)
(0.15163 0.133711 -0.00332903)
(0.0643194 0.0943605 -0.00190902)
(0.183897 0.115354 0.0108182)
(0.521828 0.0549965 -0.131925)
(0.107056 0.137376 -0.0103617)
(0.142563 0.104006 -0.00817242)
(0.215063 0.125791 -0.0068056)
(0.12829 0.226251 -0.00352133)
(0.0474216 0.165748 -0.00206786)
(0.181034 0.0626452 0.00575576)
(0.505337 0.0271234 -0.136069)
(0.09305 0.166389 -0.0096849)
(0.0614702 0.117783 -0.00691416)
(0.115374 0.317913 0.00446446)
(0.0338983 0.220301 -0.00165495)
(0.181095 0.0329664 0.00135914)
(0.497415 0.0125192 -0.137874)
(0.0794138 0.255597 -0.0121988)
(-0.00693329 0.227147 -0.0045669)
(0.308159 0.311845 0.00614025)
(0.0657438 0.240579 -0.000370602)
(0.182872 0.0157112 -0.00213071)
(0.494273 0.00474076 -0.13857)
(0.0752418 0.370925 -0.0132823)
(-0.000715188 0.295285 -0.00479671)
(0.255517 0.336394 0.00120927)
(0.041179 0.281824 -0.00157175)
(0.1859 0.0047716 -0.00488878)
(0.493943 0.00072992 -0.138774)
(0.0735761 0.493434 -0.0142865)
(-0.00566298 0.396619 -0.00617192)
(0.0858982 0.416209 -0.0132819)
(0.00737031 0.319538 -0.00298628)
(0.185307 -0.0054555 -0.00510594)
(0.493563 -0.0016688 -0.138771)
(0.119654 0.550629 -0.0162225)
(0.263255 0.455891 -0.0175706)
(0.0042754 0.207016 -0.00722278)
(-0.0357989 0.488704 -0.0147566)
(-0.0136637 0.352941 -0.00389524)
(0.182268 -0.0157873 -0.0028692)
(0.494532 -0.00677238 -0.138625)
(0.100256 0.638859 -0.0653997)
(0.0644729 0.499518 -0.0216044)
(0.0439885 0.474699 -0.0198356)
(0.0210291 0.506875 -0.0170344)
(-0.00637964 0.376945 -0.00466349)
(0.180451 -0.0304854 -0.000307838)
(0.497992 -0.0156215 -0.138243)
(0.157173 0.658171 -0.0696981)
(0.156201 0.680982 -0.0732985)
(0.0447746 0.723735 -0.0706979)
(0.00732892 0.564 -0.0196115)
(0.0101852 0.421311 -0.00425155)
(0.18057 -0.0537977 0.00137131)
(0.503512 -0.0313432 -0.137417)
(0.112117 0.761182 -0.085854)
(0.109482 0.749325 -0.0853714)
(0.142217 0.761257 -0.0805116)
(0.0972543 0.630034 -0.0222009)
(0.0849439 0.484867 -0.00510143)
(0.199743 -0.106207 -0.0172136)
(0.504833 -0.0509853 -0.132431)
(0.127048 0.960428 -0.0963581)
(0.14369 0.972107 -0.0970851)
(0.217536 0.968734 -0.0890303)
(0.199497 0.655522 -0.0570256)
(0.317122 0.59799 -0.075986)
(0.369395 0.271742 -0.0490087)
(0.286044 0.19059 -0.0508972)
(0.2807 0.158712 -0.0501087)
(0.33482 0.107876 -0.0474363)
(0.509081 0.000200485 -0.1071)
(0.952049 -0.000135724 -0.309787)
(0.123548 0.994181 -0.159146)
(0.14155 0.976214 -0.166129)
(0.237936 0.96319 -0.156831)
(0.246535 0.883872 -0.230634)
(0.155541 0.69281 -0.0909631)
(0.248129 0.570021 -0.0966978)
(0.261124 0.51327 -0.103569)
(0.280794 0.455742 -0.109618)
(0.340975 0.375418 -0.115355)
(0.405042 0.237986 -0.342091)
(0.79711 0.0929944 -0.329882)
(0.107216 1.46351 -0.185028)
(0.128914 1.45196 -0.187746)
(0.143412 1.41662 -0.197097)
(0.22841 1.32046 -0.199028)
(0.240267 1.20425 -0.291683)
(0.158227 1.14575 -0.291673)
(0.170394 1.0768 -0.305382)
(0.170855 1.00239 -0.307381)
(0.214991 0.898395 -0.315835)
(0.241977 0.708914 -0.323142)
(0.66943 0.561402 -0.329956)
(0.128288 0.0796213 -0.0707117)
(0.186972 0.0701469 -0.0608027)
(0.257894 0.064948 -0.0477152)
(0.324478 0.0192584 -0.0192078)
(0.522691 0.0627887 -0.0277674)
(0.465452 0.0662878 -0.0638105)
(0.561363 0.0630734 -0.0713521)
(0.680121 0.0648691 -0.101528)
(0.820206 0.0647566 -0.151019)
(1.04883 0.0303045 -0.434862)
(1.15299 0.133759 -0.379104)
(0.127856 0.100442 -0.0838114)
(0.191623 0.0965244 -0.0777317)
(0.236729 0.0676849 -0.0539061)
(0.344434 0.0241224 -0.0517508)
(0.376426 -0.0394624 -0.0300544)
(0.521537 0.01727 -0.0520491)
(0.622678 0.0149895 -0.0744182)
(0.737583 0.0199733 -0.107987)
(0.86651 0.053839 -0.152828)
(0.926562 0.137639 -0.213117)
(1.02316 0.201099 -0.485047)
(0.130892 0.0747915 -0.0916064)
(0.171939 0.0613358 -0.0849015)
(0.228811 0.027631 -0.0741698)
(0.200576 -0.0120616 -0.0274797)
(0.218031 -0.0600332 -0.002261)
(0.410761 -0.0384102 0.0037615)
(0.454404 -0.0123702 -0.0355449)
(0.534149 -0.013603 -0.054681)
(0.668251 0.00907989 -0.088182)
(0.581546 0.304055 -0.162016)
(0.525233 0.147782 -0.353458)
(0.112123 0.100456 -0.0872548)
(0.15034 0.104909 -0.0823278)
(0.201814 0.126096 -0.0687536)
(0.172652 0.0500184 -0.0200619)
(0.119126 -0.000318172 0.00485791)
(0.158404 0.254603 -0.219008)
(0.404175 0.108403 -0.38794)
(0.136268 0.135135 -0.0884376)
(0.14279 0.0846283 -0.0358627)
(0.1691 0.103911 -0.0280458)
(0.146829 0.133967 -0.0185704)
(0.0597588 0.090535 0.00641584)
(0.12423 0.108692 -0.24056)
(0.345765 0.0584035 -0.415664)
(0.108635 0.125411 -0.0406164)
(0.151991 0.0903673 -0.0398127)
(0.223101 0.131657 -0.0293801)
(0.121067 0.22953 -0.0162009)
(0.0400924 0.163376 0.00649087)
(0.108671 0.0546843 -0.26024)
(0.313709 0.029659 -0.433524)
(0.0925421 0.150667 -0.0469612)
(0.0688649 0.0969076 -0.0328781)
(0.0352075 0.317084 -0.00586284)
(0.0138782 0.218191 0.0113613)
(0.0997597 0.0268031 -0.273805)
(0.297043 0.0143276 -0.443881)
(0.0779074 0.245219 -0.0516647)
(-0.009371 0.214276 -0.0106125)
(0.0111996 0.343508 -0.00807657)
(0.00782012 0.241505 0.0157858)
(0.0949269 0.0118967 -0.282086)
(0.289283 0.00592031 -0.44941)
(0.0737712 0.358219 -0.0567532)
(-0.00173341 0.291027 -0.0222135)
(0.0174925 0.380146 -0.021351)
(0.00273532 0.273773 0.00770778)
(0.0926632 0.0027869 -0.287446)
(0.286914 0.000967096 -0.452179)
(0.0728452 0.477925 -0.060621)
(-0.00635492 0.393175 -0.0296802)
(0.00994271 0.434879 -0.0461314)
(-0.00423871 0.308326 -0.00937217)
(0.0924509 -0.00454602 -0.286852)
(0.287518 -0.00330491 -0.451475)
(0.118887 0.527584 -0.0672881)
(0.25382 0.43497 -0.0707046)
(0.02233 0.199601 -0.0465145)
(-0.0337384 0.475673 -0.0618418)
(-0.0150218 0.338622 -0.0230308)
(0.094121 -0.014037 -0.283811)
(0.292143 -0.00969853 -0.449131)
(0.0995852 0.595299 -0.177018)
(0.0713023 0.468466 -0.0850396)
(0.0475574 0.446921 -0.0826765)
(0.0256801 0.487827 -0.0726807)
(-0.00428931 0.366093 -0.0311723)
(0.0979171 -0.029838 -0.280263)
(0.30244 -0.0202656 -0.445623)
(0.152189 0.60253 -0.191126)
(0.152292 0.620604 -0.199326)
(0.0554058 0.659793 -0.19324)
(0.0195553 0.54106 -0.0817862)
(0.0187588 0.412905 -0.0302662)
(0.107597 -0.0696415 -0.279028)
(0.320017 -0.0391926 -0.443226)
(0.112553 0.693525 -0.226962)
(0.113277 0.681303 -0.22858)
(0.157377 0.697471 -0.217744)
(0.113784 0.605965 -0.0978049)
(0.126804 0.476531 -0.0259645)
(0.207742 -0.194524 -0.286688)
(0.349652 -0.0582174 -0.452406)
(0.125934 0.835402 -0.255069)
(0.149051 0.837388 -0.257712)
(0.220473 0.836089 -0.254256)
(0.285279 0.800543 -0.278988)
(0.293716 0.527545 -0.169684)
(0.330077 0.395534 -0.213921)
(0.311719 0.307096 -0.276975)
(0.318366 0.251568 -0.297691)
(0.367706 0.164964 -0.326683)
(0.437078 0.0467597 -0.417774)
(0.581785 0.0163109 -0.663445)
(0.11609 0.865238 -0.368668)
(0.141484 0.850329 -0.379298)
(0.187546 0.830362 -0.371109)
(0.251754 0.748227 -0.43392)
(0.276141 0.684419 -0.394806)
(0.258483 0.576746 -0.447729)
(0.271823 0.487333 -0.483214)
(0.280382 0.397369 -0.520815)
(0.358501 0.279961 -0.578605)
(0.347015 0.174612 -0.665848)
(0.499561 0.0592221 -0.677708)
(0.106862 1.12854 -0.425596)
(0.119511 1.11912 -0.431765)
(0.136274 1.08891 -0.445154)
(0.159398 1.03002 -0.451133)
(0.169906 0.926099 -0.541367)
(0.170495 0.857058 -0.552402)
(0.174898 0.780523 -0.57777)
(0.181358 0.693449 -0.594533)
(0.213717 0.600689 -0.616994)
(0.22091 0.408871 -0.666099)
(0.401849 0.292852 -0.695248)
(0.127043 0.0813934 -0.123039)
(0.1904 0.0733571 -0.112281)
(0.255089 0.0655224 -0.0946624)
(0.35424 0.0283421 -0.0825609)
(0.500184 0.0341258 -0.049232)
(0.632032 0.040307 -0.0873692)
(0.766433 0.0490584 -0.155359)
(0.872311 0.0534133 -0.2222)
(1.04222 0.0935765 -0.34932)
(1.02652 0.0769942 -0.487551)
(1.07162 0.13343 -0.472965)
(0.128253 0.101466 -0.138668)
(0.194181 0.0983825 -0.129135)
(0.240623 0.0703856 -0.114273)
(0.344659 0.0405372 -0.10403)
(0.368157 -0.0176994 -0.0412779)
(0.499205 -0.00841743 -0.053751)
(0.595186 -0.00320876 -0.0966498)
(0.698591 -0.00545563 -0.146138)
(0.801033 0.0322903 -0.215005)
(0.847789 0.0998509 -0.33049)
(0.925487 0.136196 -0.646913)
(0.131324 0.0697688 -0.147097)
(0.178247 0.0593845 -0.137467)
(0.233645 0.0275318 -0.123787)
(0.221981 -0.00402636 -0.0547134)
(0.309278 -0.0677559 -0.0194137)
(0.363064 -0.0380269 -0.0273418)
(0.419822 -0.0329579 -0.0695395)
(0.494286 -0.036826 -0.104097)
(0.610279 -0.0192404 -0.151974)
(0.585084 0.197368 -0.256371)
(0.503954 0.0947984 -0.468266)
(0.11666 0.0913307 -0.145258)
(0.158661 0.0981023 -0.135229)
(0.212577 0.119588 -0.116905)
(0.183041 0.0480697 -0.0432942)
(0.13433 -0.0111678 -0.00114933)
(0.155883 0.250099 -0.328431)
(0.343514 0.116667 -0.508645)
(0.139607 0.115865 -0.149125)
(0.151241 0.0750585 -0.067271)
(0.177918 0.100926 -0.0513326)
(0.155263 0.129656 -0.0341782)
(0.0730105 0.0795703 0.00248109)
(0.100651 0.111768 -0.381182)
(0.262403 0.06436 -0.551048)
(0.11006 0.10744 -0.0791718)
(0.163431 0.0742382 -0.0732507)
(0.235363 0.130557 -0.0497911)
(0.127348 0.225551 -0.0275598)
(0.0437552 0.156937 0.00635118)
(0.0831251 0.0536745 -0.404569)
(0.219559 0.0324914 -0.578743)
(0.0923306 0.130029 -0.0894163)
(0.0741056 0.0729641 -0.0646744)
(0.026324 0.310198 -0.0197379)
(0.0116325 0.212967 0.00844189)
(0.0742533 0.0250905 -0.420522)
(0.197634 0.0153449 -0.595274)
(0.0782976 0.227357 -0.089457)
(-0.00940136 0.196479 -0.0356355)
(-0.00570094 0.328757 -0.0218745)
(0.00327426 0.231867 0.00634627)
(0.069807 0.0109085 -0.430865)
(0.187822 0.00589165 -0.604286)
(0.0734711 0.340016 -0.0948428)
(0.000951747 0.276777 -0.0520723)
(0.00524968 0.366844 -0.0391109)
(-0.000692657 0.261245 -0.00396419)
(0.0686603 0.0013739 -0.437774)
(0.185058 -0.000343311 -0.608433)
(0.0731608 0.456524 -0.100796)
(-0.0031126 0.3773 -0.05968)
(0.0103456 0.412833 -0.0711589)
(-0.00286344 0.292389 -0.0239906)
(0.0689873 -0.00665913 -0.438578)
(0.188222 -0.00694617 -0.605982)
(0.118665 0.499924 -0.112457)
(0.251456 0.411424 -0.115113)
(0.0369608 0.18272 -0.0869186)
(-0.017938 0.446546 -0.101619)
(-0.00677306 0.323457 -0.0441199)
(0.0724014 -0.0182628 -0.437134)
(0.198088 -0.0170635 -0.600083)
(0.0997744 0.550343 -0.268958)
(0.0808921 0.430149 -0.145132)
(0.059183 0.406658 -0.140315)
(0.0418791 0.451448 -0.122264)
(0.0143442 0.345144 -0.0551394)
(0.0782416 -0.049215 -0.445905)
(0.219418 -0.0320321 -0.589616)
(0.148546 0.544429 -0.29296)
(0.151621 0.55588 -0.305592)
(0.0698347 0.586977 -0.299229)
(0.044285 0.489829 -0.150564)
(0.0608253 0.383802 -0.0598448)
(0.100031 -0.119137 -0.435317)
(0.249382 -0.05823 -0.58042)
(0.111318 0.622459 -0.337311)
(0.115327 0.609698 -0.34173)
(0.149216 0.618471 -0.327925)
(0.138871 0.517708 -0.20374)
(0.237818 0.506217 -0.21337)
(0.330183 0.276468 -0.204022)
(0.251689 0.224167 -0.286219)
(0.254237 0.206384 -0.299407)
(0.321716 0.152674 -0.299655)
(0.430018 -0.00591693 -0.552885)
(0.509075 0.010592 -0.789792)
(0.123783 0.724782 -0.379335)
(0.138156 0.726248 -0.389274)
(0.208314 0.727312 -0.387907)
(0.231188 0.696791 -0.448693)
(0.204393 0.478254 -0.299512)
(0.266039 0.395977 -0.385099)
(0.268412 0.343647 -0.436042)
(0.283113 0.29115 -0.46061)
(0.327147 0.209987 -0.477873)
(0.401636 0.161173 -0.758175)
(0.486131 0.0660078 -0.7706)
(0.113229 0.755073 -0.482719)
(0.136767 0.741855 -0.491855)
(0.172727 0.727248 -0.496422)
(0.240585 0.651843 -0.522275)
(0.257852 0.616752 -0.579984)
(0.231869 0.539161 -0.61241)
(0.241407 0.466475 -0.641537)
(0.249703 0.383884 -0.670097)
(0.274397 0.279568 -0.697191)
(0.27299 0.186859 -0.769451)
(0.348805 0.0654619 -0.790717)
(0.106242 0.897092 -0.547464)
(0.11612 0.888206 -0.556629)
(0.130874 0.861 -0.564096)
(0.146633 0.808297 -0.582272)
(0.152357 0.71384 -0.610249)
(0.155982 0.647729 -0.637988)
(0.161464 0.5702 -0.666865)
(0.168629 0.487785 -0.695528)
(0.187006 0.39252 -0.73115)
(0.193675 0.263191 -0.779682)
(0.263625 0.152314 -0.820236)
(0.125979 0.0832531 -0.173935)
(0.18566 0.0760369 -0.162126)
(0.248008 0.0722669 -0.146198)
(0.32977 0.0355051 -0.133947)
(0.457642 0.0439326 -0.133474)
(0.584458 0.0431599 -0.157421)
(0.708677 0.0431536 -0.202747)
(0.805357 0.0398085 -0.267903)
(0.943105 0.0642957 -0.343277)
(0.919676 0.0762901 -0.470061)
(0.989265 0.0652607 -0.523435)
(0.128458 0.102625 -0.190337)
(0.195234 0.100297 -0.175913)
(0.238311 0.0802014 -0.162593)
(0.331614 0.057221 -0.128445)
(0.341433 0.0130739 -0.0831502)
(0.444792 0.0100571 -0.109047)
(0.531602 0.0126568 -0.152637)
(0.627237 0.0110966 -0.207094)
(0.733826 0.0321675 -0.273703)
(0.989485 0.121346 -0.553694)
(0.92683 0.110067 -0.676551)
(0.131985 0.0668419 -0.199572)
(0.183345 0.0607969 -0.188914)
(0.231869 0.0355504 -0.159632)
(0.228636 0.0132673 -0.094167)
(0.328263 -0.0388625 -0.0424178)
(0.450795 -0.0355587 -0.0755851)
(0.529731 -0.0300132 -0.124549)
(0.626579 -0.0310252 -0.174023)
(0.743678 0.00821891 -0.255922)
(0.794211 0.113192 -0.410824)
(0.789857 0.0974283 -0.668691)
(0.121983 0.0830402 -0.202112)
(0.169251 0.0939993 -0.187042)
(0.227428 0.120635 -0.163693)
(0.199843 0.0581012 -0.0739889)
(0.169808 -0.0202609 -0.00520078)
(0.284689 -0.0257484 -0.0156578)
(0.272515 -0.0368259 -0.0470547)
(0.318562 -0.0450935 -0.0655337)
(0.398284 -0.0478647 -0.0868781)
(0.405227 0.352369 -0.458429)
(0.378253 0.119136 -0.578013)
(0.142815 0.094761 -0.210062)
(0.160651 0.0658046 -0.102876)
(0.191848 0.0978909 -0.0802647)
(0.177876 0.124863 -0.057028)
(0.112885 0.0642009 -0.0017942)
(0.130547 0.114447 -0.530652)
(0.280604 0.0645263 -0.642141)
(0.111843 0.0895366 -0.120389)
(0.177207 0.0569871 -0.107907)
(0.251568 0.12711 -0.073533)
(0.149657 0.213808 -0.0435373)
(0.0806422 0.134819 0.00882763)
(0.102461 0.0388312 -0.562485)
(0.237345 0.0297478 -0.678395)
(0.0920089 0.105105 -0.135771)
(0.0776036 0.0471437 -0.0967144)
(0.044728 0.289163 -0.0434691)
(0.0447371 0.187261 0.00724938)
(0.0914704 0.0328207 -0.57642)
(0.21724 0.0117976 -0.698905)
(0.0779452 0.203077 -0.129898)
(-0.0129511 0.170851 -0.0633947)
(0.0206453 0.296191 -0.0522257)
(0.0391384 0.200945 -0.00426056)
(0.0884088 -0.00194565 -0.591872)
(0.209929 0.00227948 -0.710181)
(0.0736273 0.316052 -0.131773)
(0.0050353 0.256604 -0.0825605)
(0.0307843 0.325536 -0.0693519)
(0.0412129 0.217285 -0.0181086)
(0.115066 0.00244758 -0.566563)
(0.211424 -0.00543545 -0.710266)
(0.0738117 0.429813 -0.138184)
(0.000706961 0.356853 -0.0890386)
(0.0357654 0.363128 -0.105657)
(0.0388457 0.240664 -0.0442089)
(0.141381 -0.0110438 -0.627458)
(0.223406 -0.012774 -0.70397)
(0.118981 0.467753 -0.153478)
(0.25204 0.382515 -0.154899)
(0.0617591 0.160997 -0.120464)
(0.0161784 0.389072 -0.144822)
(0.0411678 0.266974 -0.0675257)
(0.15208 -0.0389039 -0.675129)
(0.246519 -0.0285632 -0.687739)
(0.101665 0.499503 -0.348177)
(0.0938411 0.385554 -0.199499)
(0.0787517 0.355386 -0.194491)
(0.068112 0.389725 -0.189182)
(0.0774362 0.295525 -0.0870997)
(0.205782 0.132275 -0.0384258)
(0.18561 0.166943 -0.0604231)
(0.225343 0.160884 -0.0600789)
(0.312203 0.137257 -0.0527318)
(0.336866 -0.11352 -0.642009)
(0.293647 -0.0296143 -0.645384)
(0.145178 0.483947 -0.379988)
(0.151746 0.487396 -0.399885)
(0.0794584 0.511153 -0.39208)
(0.0690275 0.425557 -0.238754)
(0.1645 0.428563 -0.20793)
(0.226478 0.286698 -0.14682)
(0.234376 0.283971 -0.200805)
(0.274097 0.26482 -0.209077)
(0.378028 0.199834 -0.228132)
(0.505115 0.0236116 -0.595521)
(0.516229 0.0239093 -0.818778)
(0.110867 0.546785 -0.428832)
(0.1208 0.527456 -0.435308)
(0.146063 0.535518 -0.421844)
(0.185763 0.578736 -0.440558)
(0.180439 0.433127 -0.293177)
(0.258903 0.387849 -0.352743)
(0.278908 0.353843 -0.399679)
(0.320796 0.308904 -0.425513)
(0.395738 0.220332 -0.457482)
(0.484975 0.121284 -0.767554)
(0.498581 0.0462114 -0.782742)
(0.115995 0.619081 -0.477357)
(0.133008 0.620095 -0.490844)
(0.155411 0.618055 -0.487194)
(0.19875 0.593243 -0.538433)
(0.242353 0.565129 -0.545814)
(0.264888 0.504033 -0.593413)
(0.299356 0.437764 -0.635555)
(0.323105 0.362852 -0.669538)
(0.409048 0.263552 -0.717238)
(0.413262 0.172706 -0.75096)
(0.42102 0.0508471 -0.809927)
(0.108775 0.648906 -0.568582)
(0.124346 0.641912 -0.578744)
(0.146943 0.628253 -0.586191)
(0.176623 0.599295 -0.609295)
(0.198113 0.549866 -0.661076)
(0.212759 0.501886 -0.688022)
(0.227818 0.44561 -0.718842)
(0.241407 0.375099 -0.745091)
(0.265969 0.301299 -0.777578)
(0.272079 0.163539 -0.816787)
(0.302348 0.0686709 -0.850799)
(0.104306 0.743792 -0.635475)
(0.111567 0.738994 -0.645772)
(0.119965 0.720239 -0.652333)
(0.131496 0.68421 -0.668322)
(0.138925 0.632627 -0.688743)
(0.143138 0.573827 -0.70978)
(0.150623 0.506439 -0.733267)
(0.156566 0.426079 -0.759315)
(0.175167 0.3381 -0.790233)
(0.181508 0.211368 -0.839389)
(0.210378 0.104934 -0.883554)
(0.124822 0.0845399 -0.22521)
(0.184104 0.0815105 -0.212282)
(0.239985 0.0757951 -0.196665)
(0.312301 0.0724723 -0.182673)
(0.413157 0.0500697 -0.179541)
(0.512227 0.0421846 -0.203625)
(0.620192 0.0360494 -0.249411)
(0.703575 0.0300192 -0.315618)
(0.821876 0.0250104 -0.394049)
(0.858911 0.0466338 -0.506375)
(0.928231 0.0516902 -0.548437)
(0.132087 0.104631 -0.24224)
(0.19619 0.101353 -0.225294)
(0.26231 0.10055 -0.208787)
(0.330214 0.053363 -0.175291)
(0.441806 0.0532561 -0.161558)
(0.555238 0.050076 -0.192273)
(0.666467 0.0527737 -0.249884)
(0.756656 0.048273 -0.321396)
(0.895394 0.0714385 -0.442351)
(0.922828 0.0804035 -0.581423)
(0.902007 0.12613 -0.640108)
(0.130624 0.0627528 -0.252624)
(0.202334 0.0574758 -0.23472)
(0.227685 0.0413503 -0.208264)
(0.315542 0.029572 -0.192506)
(0.309745 -0.0100222 -0.130854)
(0.399972 -0.0288416 -0.141807)
(0.473594 -0.0277713 -0.184639)
(0.558793 -0.0340985 -0.239526)
(0.648594 -0.00852481 -0.320637)
(0.716708 0.0444056 -0.417236)
(0.807471 0.0509161 -0.699854)
(0.126918 0.0714305 -0.258669)
(0.1794 0.0895358 -0.239015)
(0.234975 0.104907 -0.206624)
(0.223527 0.0744775 -0.112317)
(0.253732 0.0276604 -0.0684722)
(0.297268 -0.017253 -0.0585744)
(0.342586 -0.0169668 -0.0852894)
(0.40773 -0.0255655 -0.115578)
(0.50476 -0.0124705 -0.178076)
(0.727254 0.0958853 -0.485301)
(0.740863 -0.00606608 -0.757236)
(0.144327 0.0719392 -0.27117)
(0.170443 0.0571648 -0.14058)
(0.208698 0.0923512 -0.113789)
(0.205553 0.119522 -0.102304)
(0.222183 0.0999183 -0.0449176)
(0.273913 0.0354662 -0.0106052)
(0.323341 0.0191702 -0.0442258)
(0.400638 0.0055563 -0.0604128)
(0.534103 0.00913259 -0.110668)
(0.679637 0.0462755 -0.618479)
(0.674909 0.0267156 -0.800307)
(0.113621 0.0702414 -0.163456)
(0.190117 0.0417337 -0.143964)
(0.268528 0.122603 -0.104568)
(0.184001 0.200716 -0.080478)
(0.18696 0.17158 -0.0381751)
(0.25158 0.0716183 -0.00952903)
(0.307263 0.0558088 -0.0413607)
(0.391271 0.042573 -0.0561148)
(0.543413 0.0351696 -0.111853)
(0.682636 0.021808 -0.635103)
(0.64831 0.00785128 -0.819448)
(0.0914596 0.0774118 -0.18401)
(0.0789956 0.0214734 -0.126952)
(0.078017 0.258133 -0.0907981)
(0.135524 0.210399 -0.067669)
(0.23197 0.0961717 -0.0426642)
(0.29136 0.0809333 -0.0580368)
(0.377546 0.0652107 -0.0742133)
(0.52239 0.0516394 -0.131762)
(0.691244 0.0135962 -0.627788)
(0.634173 0.00873966 -0.824716)
(0.0779007 0.174599 -0.172926)
(-0.0207846 0.140343 -0.099236)
(0.0533279 0.255179 -0.108765)
(0.114022 0.224276 -0.101193)
(0.217245 0.113569 -0.0500472)
(0.282963 0.0916574 -0.0588597)
(0.372306 0.0702737 -0.0757682)
(0.515897 0.0447259 -0.135594)
(0.689021 0.00890714 -0.605364)
(0.62647 0.00498323 -0.824238)
(0.0740212 0.287507 -0.168849)
(0.00807482 0.232821 -0.112941)
(0.058624 0.277256 -0.133605)
(0.120708 0.251113 -0.139134)
(0.185167 0.130753 -0.0581484)
(0.269767 0.108085 -0.0617664)
(0.358409 0.0830126 -0.0805323)
(0.497376 0.0505386 -0.141824)
(0.665764 0.00991197 -0.611235)
(0.620425 0.00702923 -0.821337)
(0.0745608 0.398796 -0.173922)
(0.00481245 0.333152 -0.116946)
(0.063112 0.30676 -0.161688)
(0.101491 0.276613 -0.150754)
(0.183384 0.163493 -0.0735927)
(0.255443 0.135191 -0.0787648)
(0.337654 0.108416 -0.0982219)
(0.469106 0.064115 -0.160034)
(0.645295 0.0143376 -0.593147)
(0.61736 0.00933365 -0.811048)
(0.119267 0.432089 -0.19149)
(0.253998 0.35063 -0.191464)
(0.0927612 0.135732 -0.150656)
(0.0528966 0.331537 -0.191268)
(0.108502 0.302304 -0.181457)
(0.25245 0.263624 -0.166229)
(0.324692 0.230215 -0.183393)
(0.428317 0.190791 -0.212775)
(0.560932 0.115514 -0.29833)
(0.658769 0.0487187 -0.540614)
(0.605937 0.0110976 -0.797922)
(0.103964 0.446604 -0.415335)
(0.10596 0.338593 -0.245605)
(0.102368 0.292932 -0.230707)
(0.0778083 0.418516 -0.355837)
(0.0997347 0.336608 -0.221891)
(0.224232 0.308581 -0.220373)
(0.297973 0.286188 -0.238202)
(0.384719 0.248301 -0.268187)
(0.490874 0.179132 -0.343504)
(0.566901 0.0746107 -0.509814)
(0.578675 0.0407733 -0.78754)
(0.138936 0.424623 -0.450517)
(0.152385 0.419486 -0.470094)
(0.0566302 0.434441 -0.474574)
(0.102778 0.484546 -0.450039)
(0.163745 0.373811 -0.285517)
(0.220464 0.370045 -0.308238)
(0.267129 0.352144 -0.334952)
(0.331055 0.313903 -0.361707)
(0.421741 0.234217 -0.406058)
(0.547737 0.138156 -0.74153)
(0.536052 0.047224 -0.775589)
(0.109633 0.475026 -0.50189)
(0.122072 0.457761 -0.509198)
(0.134497 0.45845 -0.503653)
(0.172627 0.509832 -0.500134)
(0.227553 0.483772 -0.512538)
(0.267779 0.453447 -0.539624)
(0.320549 0.407218 -0.577121)
(0.361597 0.341632 -0.617416)
(0.458013 0.245745 -0.68604)
(0.465121 0.148278 -0.74826)
(0.461163 0.0437573 -0.812005)
(0.112982 0.527545 -0.550665)
(0.126653 0.528836 -0.560222)
(0.139204 0.526236 -0.562644)
(0.167208 0.515822 -0.571747)
(0.205408 0.495305 -0.598671)
(0.239939 0.461909 -0.620868)
(0.271108 0.418633 -0.648482)
(0.301811 0.356334 -0.680746)
(0.334901 0.287467 -0.711602)
(0.350095 0.154151 -0.794117)
(0.376179 0.06256 -0.832167)
(0.106731 0.553583 -0.627177)
(0.119786 0.548694 -0.63588)
(0.135634 0.538378 -0.639945)
(0.158931 0.519814 -0.65207)
(0.176253 0.488909 -0.672596)
(0.188232 0.445152 -0.6974)
(0.205607 0.391784 -0.725197)
(0.219434 0.325143 -0.755618)
(0.244474 0.246541 -0.788671)
(0.253608 0.153744 -0.836373)
(0.270476 0.0596029 -0.874545)
(0.10335 0.619113 -0.691313)
(0.108724 0.616059 -0.701235)
(0.114728 0.600799 -0.706623)
(0.122278 0.57418 -0.716618)
(0.129724 0.533271 -0.73277)
(0.136651 0.48648 -0.750061)
(0.143738 0.429724 -0.770763)
(0.150319 0.360253 -0.795894)
(0.160042 0.283023 -0.824391)
(0.164388 0.175172 -0.870022)
(0.179583 0.0785415 -0.909844)
(0.123481 0.0848455 -0.274346)
(0.176794 0.0817664 -0.262499)
(0.231718 0.0793664 -0.250127)
(0.290783 0.0740645 -0.236791)
(0.369449 0.0697869 -0.237102)
(0.454381 0.067658 -0.25443)
(0.545987 0.0671708 -0.289185)
(0.62056 0.0643269 -0.343125)
(0.721996 0.0704362 -0.408492)
(0.755161 0.0636414 -0.498159)
(0.861602 0.0509066 -0.575987)
(0.130631 0.105176 -0.292931)
(0.191834 0.106398 -0.278095)
(0.252809 0.105244 -0.263155)
(0.31631 0.0991397 -0.250052)
(0.404604 0.0742711 -0.242605)
(0.49614 0.0624866 -0.261714)
(0.590541 0.0522335 -0.301739)
(0.675625 0.0377486 -0.363482)
(0.770671 0.0398085 -0.436947)
(0.791199 0.0254721 -0.563356)
(0.829842 0.0646647 -0.666919)
(0.134571 0.0626715 -0.305221)
(0.19855 0.0609674 -0.283449)
(0.256809 0.0614072 -0.267352)
(0.298254 0.0484762 -0.224577)
(0.382966 0.0378549 -0.230956)
(0.484424 0.02483 -0.255621)
(0.578212 0.0138282 -0.300246)
(0.673221 0.00382301 -0.357611)
(0.768615 0.0256897 -0.453628)
(0.847087 0.0485288 -0.567927)
(0.853014 0.0355799 -0.720221)
(0.129546 0.0640957 -0.312894)
(0.195505 0.0825974 -0.286796)
(0.246758 0.108537 -0.252546)
(0.28657 0.0970017 -0.223059)
(0.275931 0.0600375 -0.156938)
(0.346716 0.0452904 -0.155444)
(0.416582 0.0359479 -0.181825)
(0.50311 0.027303 -0.221284)
(0.610187 0.0416615 -0.279284)
(0.81041 0.106821 -0.562964)
(0.77075 0.0431772 -0.705587)
(0.144784 0.0494259 -0.330221)
(0.180667 0.0489268 -0.178818)
(0.222506 0.077839 -0.151224)
(0.25715 0.206595 -0.237299)
(0.264574 0.10879 -0.153225)
(0.324746 0.0784563 -0.154903)
(0.39617 0.0571454 -0.179264)
(0.490574 0.0424353 -0.216841)
(0.614829 0.0382428 -0.277464)
(0.792508 0.0377707 -0.618093)
(0.752216 0.0285646 -0.730061)
(0.114839 0.0518312 -0.206079)
(0.197661 0.029723 -0.180826)
(0.276405 0.120956 -0.141343)
(0.193791 0.199264 -0.136899)
(0.225664 0.168029 -0.144655)
(0.303376 0.119397 -0.15553)
(0.378641 0.0852892 -0.180374)
(0.481054 0.0631595 -0.218133)
(0.613371 0.0476615 -0.282169)
(0.78103 0.0443715 -0.631271)
(0.724813 0.0200921 -0.735572)
(0.0912283 0.0489039 -0.230077)
(0.0774137 -0.00230168 -0.152598)
(0.099866 0.233528 -0.142021)
(0.192288 0.235505 -0.252523)
(0.256593 0.145456 -0.167583)
(0.358225 0.105168 -0.187719)
(0.467087 0.078606 -0.22559)
(0.598892 0.0527587 -0.291352)
(0.766154 0.0292598 -0.639564)
(0.70905 0.0152792 -0.742746)
(0.0800217 0.143568 -0.217089)
(-0.00674976 0.108174 -0.150714)
(0.0719181 0.219168 -0.163091)
(0.170509 0.254278 -0.280836)
(0.254352 0.166024 -0.180757)
(0.343078 0.127148 -0.198004)
(0.45006 0.0968018 -0.233837)
(0.578853 0.062456 -0.298045)
(0.746968 0.0343109 -0.643808)
(0.696228 0.0130831 -0.744446)
(0.0747516 0.255545 -0.205775)
(0.00797605 0.206631 -0.143508)
(0.07229 0.230179 -0.184524)
(0.16465 0.312312 -0.313579)
(0.242196 0.195434 -0.190383)
(0.320636 0.157548 -0.201502)
(0.424615 0.121173 -0.234014)
(0.551376 0.0758504 -0.294323)
(0.725313 0.00465194 -0.64929)
(0.677561 0.0126014 -0.746778)
(0.0753326 0.364226 -0.208479)
(0.00943393 0.306471 -0.143793)
(0.0872476 0.249528 -0.208359)
(0.200879 0.32278 -0.327013)
(0.338503 0.27612 -0.301867)
(0.416671 0.223515 -0.324034)
(0.537947 0.167195 -0.370216)
(0.621395 0.0877792 -0.468438)
(0.714139 0.025555 -0.650229)
(0.684768 0.0149953 -0.741067)
(0.119179 0.392972 -0.227623)
(0.25524 0.316909 -0.226235)
(0.122713 0.109787 -0.181241)
(0.0865117 0.264725 -0.232996)
(0.161521 0.336858 -0.369444)
(0.296267 0.28989 -0.352816)
(0.387063 0.252088 -0.37373)
(0.492494 0.206679 -0.418508)
(0.580784 0.143948 -0.518316)
(0.669652 0.0822974 -0.654044)
(0.650294 0.0221737 -0.745649)
(0.107026 0.392235 -0.47456)
(0.123084 0.293497 -0.28837)
(0.120714 0.240119 -0.286018)
(0.091717 0.347183 -0.44246)
(0.151442 0.356404 -0.419963)
(0.273379 0.327923 -0.406456)
(0.347322 0.293437 -0.430974)
(0.437898 0.252733 -0.474269)
(0.509264 0.178496 -0.561703)
(0.60399 0.15358 -0.670585)
(0.610311 0.0276745 -0.752499)
(0.140854 0.36595 -0.509375)
(0.151002 0.352671 -0.52611)
(0.0964708 0.350709 -0.532126)
(0.0826951 0.371131 -0.483852)
(0.158264 0.415206 -0.488082)
(0.248523 0.392602 -0.493533)
(0.318114 0.367424 -0.517483)
(0.379118 0.324141 -0.554577)
(0.489548 0.25713 -0.627073)
(0.51652 0.177591 -0.704382)
(0.5119 0.042114 -0.795578)
(0.110596 0.403407 -0.561468)
(0.12215 0.38147 -0.569125)
(0.131586 0.383571 -0.565582)
(0.146623 0.402929 -0.559535)
(0.187373 0.421386 -0.56562)
(0.236577 0.401545 -0.577714)
(0.279144 0.373438 -0.599783)
(0.32469 0.323294 -0.634075)
(0.371175 0.263744 -0.668879)
(0.40309 0.143537 -0.763647)
(0.428664 0.0513165 -0.816478)
(0.111063 0.443205 -0.609363)
(0.121805 0.442616 -0.618967)
(0.127891 0.438975 -0.619624)
(0.145057 0.431173 -0.624181)
(0.174135 0.421344 -0.632573)
(0.204597 0.391082 -0.654001)
(0.237253 0.352999 -0.680647)
(0.265836 0.299012 -0.713899)
(0.309151 0.230361 -0.753646)
(0.330027 0.146775 -0.801808)
(0.3474 0.0523292 -0.85237)
(0.105087 0.466161 -0.675826)
(0.114215 0.462302 -0.684628)
(0.125143 0.454741 -0.688404)
(0.138676 0.442963 -0.696381)
(0.155304 0.423452 -0.712682)
(0.172243 0.391415 -0.729398)
(0.189459 0.350848 -0.750983)
(0.20518 0.294891 -0.777237)
(0.224743 0.231987 -0.806474)
(0.235106 0.139535 -0.851027)
(0.251166 0.0564928 -0.889308)
(0.102508 0.519235 -0.735522)
(0.10644 0.51762 -0.745595)
(0.110269 0.506847 -0.749668)
(0.115752 0.488102 -0.757146)
(0.122136 0.461177 -0.76762)
(0.128311 0.42306 -0.782344)
(0.135482 0.376279 -0.80055)
(0.141844 0.315682 -0.823483)
(0.151749 0.247045 -0.850661)
(0.156651 0.1545 -0.88758)
(0.165371 0.0653934 -0.925615)
(0.12091 0.0842798 -0.321142)
(0.168922 0.0825884 -0.312044)
(0.218158 0.0804338 -0.301222)
(0.269946 0.0815322 -0.29471)
(0.331538 0.0764658 -0.294884)