/*--------------------------------*- C++ -*----------------------------------*\
| =========                 |                                                 |
| \\      /  F ield         | OpenFOAM: The Open Source CFD Toolbox           |
|  \\    /   O peration     | Version:  v1906                                 |
|   \\  /    A nd           | Web:      www.OpenFOAM.com                      |
|    \\/     M anipulation  |                                                 |
\*---------------------------------------------------------------------------*/
FoamFile
{
    version     2.0;
    format      ascii;
    class       surfaceScalarField;
    location    "10";
    object      phi;
}
// * * * * * * * * * * * * * * * * * * * * * * * * * * * * * * * * * * * * * //

dimensions      [1 0 -1 0 0 0 0];
oriented        oriented;


internalField   nonuniform List<scalar> 
104699
(
0.0112903
0.00706657
-0.00140249
0.0141776
0.00669649
-0.00107373
0.0181928
0.00522136
-0.000738721
0.00512875
0.000885576
0.00084046
0.00572472
0.00513808
0.00586817
0.00096245
0.00100777
0.00110353
0.00577802
0.00133893
0.000124371
0.00777146
0.00138287
-0.00019812
-0.00684641
-0.00867229
0.00957606
0.00142726
-0.000215988
-0.0106177
0.0116776
0.0014794
-0.000415511
-0.0129711
0.0142753
0.00154931
-0.00072524
0.0785477
0.00186847
-0.0162801
0.00373195
0.00169322
0.00306268
-0.0160428
-0.016477
-0.0156774
-0.0159955
0.0119335
-0.0157041
0.0112239
0.00659854
-0.00231577
0.0138435
0.00623243
-0.00215352
0.00373708
0.00499861
-0.000985159
0.00367686
0.00384495
0.00379401
0.00425091
0.0005358
-0.000163444
0.00670448
-0.000643031
-6.84373e-05
-0.000679031
-0.0053136
0.00892644
-0.000226491
-0.00793688
9.55397e-05
-8.24933e-05
-5.61812e-05
7.51407e-05
-0.000795008
-0.0098398
0.0107686
-0.00040821
0.000203901
1.092e-05
3.35206e-05
0.000186331
-0.000955136
-0.0118245
0.0129538
-0.000668017
0.000269025
3.37313e-05
5.36553e-05
0.000254958
-0.0010725
-0.0141963
0.0152892
-0.000994142
0.000522931
0.000172388
0.000186456
0.000504132
-0.00148457
-0.0157644
0.0149874
-0.00107743
0.000906445
0.000868027
0.000974131
0.00097441
0.00224385
-0.0219953
-0.0154891
-0.0148216
-0.0150256
-0.0140605
0.00260799
0.00189767
0.00227968
0.0110977
0.00652801
-0.00258646
0.0135633
0.00617398
-0.00240545
0.00352974
0.00628801
-0.00203713
0.00347179
0.00369439
0.00361631
0.0035785
0.000368007
-0.000115337
-0.00030102
0.00023008
-0.000860393
0.000850338
-0.000232541
1.25511e-05
6.47713e-05
-0.00030173
0.000323259
-8.27734e-05
-3.49608e-06
1.17213e-05
-0.000338875
0.000335988
-5.67966e-06
-3.1178e-06
1.28676e-05
-0.000393998
0.000392668
-6.50753e-06
-5.00068e-06
1.83357e-06
-0.000486709
0.000492543
-2.70511e-07
-7.39003e-06
-0.000468659
-0.00149785
0.00199985
0.00170866
-0.000352783
-0.000465663
-0.000462999
-0.000460563
-0.0100633
0.0129019
0.00213214
-0.00272688
0.0100819
0.0072319
-0.00234639
0.0125318
0.00133764
-0.00219827
0.00148019
0.00145225
0.00165433
0.00315118
0.0017516
-0.0017828
0.00308695
0.0033074
0.00323056
0.001954
0.00195606
0.00216653
-0.000696506
0.00273915
0.00116321
-5.41069e-05
1.31124e-05
-0.00051907
0.000455456
4.26349e-05
8.18013e-06
-0.000987117
-0.000249319
0.00102524
0.000791114
2.35804e-05
-0.000260794
-0.000175392
-0.000167281
-0.00809353
-0.00192981
0.0115117
0.00142929
-0.00291768
0.00248853
0.0017452
-0.00235312
0.00275507
0.00271125
0.00299178
0.00169784
0.00184192
0.00177993
0.00265787
0.00137104
-0.000201933
-0.00289573
0.00300984
0.0017905
-0.000152197
-0.00181129
-0.00286621
0.00225675
0.0024545
-3.27398e-05
-0.000329105
-0.000315424
0.000242619
0.000394266
7.88702e-06
-0.000477469
-0.000254412
0.000908073
0.000406368
1.03265e-05
-0.000256439
-0.000170485
-0.000165956
-0.00747992
-0.0010657
0.0108644
0.000766557
-0.00308516
0.0023424
0.00166053
-0.000150731
0.00320192
-0.000151366
-0.00134433
-0.00269653
0.000246659
0.00025001
0.000257275
0.000237492
-0.0036992
0.00355101
-0.000134127
0.000396974
0.000426511
0.000794651
0.000723181
-0.00205845
-0.00283956
-0.00318412
0.00196494
0.00407662
-1.73097e-05
-0.000600891
-0.000251181
0.000188647
0.000651921
1.18637e-05
-0.000258838
-0.000240467
0.000864697
0.000220638
-2.00839e-05
-0.000241048
-0.000164063
-0.000160833
-0.00722029
-0.000545618
0.0105719
0.000383083
-0.00318892
0.00193504
0.0021387
-0.000173824
-0.00178151
-0.000241331
-0.000375593
0.00031805
0.000322869
-2.37856e-05
-0.000545131
-0.00473294
0.00130521
0.00496823
0.000296243
-0.000418866
-0.000476258
-0.00039605
-0.000827651
-0.000153852
0.000115551
0.000832922
3.32579e-05
-0.000138453
-0.000229654
0.000846093
0.000116556
-4.56776e-05
-0.000229407
-0.000160828
-0.000158612
-0.0071096
-0.000263979
0.0104433
0.000176334
-0.00324596
-0.002905
0.00145373
0.00386037
-0.0002845
-0.000708069
-7.0897e-05
1.76944e-06
0.000779049
-1.70517e-06
-0.000890578
-0.00492482
0.00291622
0.00492181
0.000387037
-0.00096231
-0.000719805
-0.000727373
-0.000915425
-0.000258703
0.000174348
0.000935793
6.40555e-05
-6.84702e-05
-0.000221119
0.000839172
5.52084e-05
-6.51963e-05
-0.000220587
-0.000160207
-0.000158796
-0.00707326
-0.000111122
0.0103965
6.2259e-05
-0.00327431
-0.0048911
0.00144156
0.00595414
-0.000356089
-0.00100589
-0.00010348
4.90747e-05
0.00106927
-8.7818e-06
-0.000921348
-0.00521727
0.00257188
0.00573602
0.000332578
-0.000927866
-0.000823617
-0.000750198
-0.00108239
-0.000193893
0.00013202
0.00109115
5.31822e-05
-2.38971e-05
-0.00021426
0.000839716
1.35481e-05
-8.01679e-05
-0.000213472
-0.000161112
-0.000160355
-0.00708313
-2.63741e-05
0.0103939
2.20537e-06
-0.00328653
-0.00699366
0.00176661
0.00780377
-0.000389503
-0.00137637
-0.000178773
0.000118126
0.00146002
-2.29699e-05
-0.000550725
-0.00636228
0.00114074
0.00694798
-5.09494e-05
-0.000348585
-0.000500979
-0.000274763
-0.00121655
-6.81428e-05
5.52318e-05
0.00120832
2.12745e-05
1.99505e-05
-0.000212272
0.000837085
-2.95967e-05
-8.11088e-05
-0.000213338
-0.000160565
-0.00016015
-0.00707052
2.18089e-05
0.0103894
-5.59259e-05
-0.00328465
-0.00811335
0.00286325
0.00779803
-0.000408617
-0.00140034
0.00685926
-0.000434311
-0.00164783
-0.00139206
-0.00164998
0.000894645
0.000767458
0.000796466
0.000868396
-0.00366095
-0.000738416
-0.000472471
0.00029
0.000935249
-1.40536e-05
0.000196218
-0.00740275
-3.70253e-05
0.00750499
-0.000260809
-0.00131686
4.20758e-05
-2.06202e-05
0.00129909
-3.57242e-06
6.05648e-05
-0.00021824
0.000835565
-7.20632e-05
-6.91774e-05
-0.000219158
-0.00015862
-0.000158854
-0.0070794
0.000100133
0.0104096
-0.000155755
-0.00327441
0.00143194
0.0393382
-0.00679844
-0.00814187
-0.00820455
-0.00795945
-0.00799653
0.00248846
0.00158964
0.00261302
-0.00692778
0.00154855
0.00731251
-0.00050091
-0.00666171
-0.00139162
0.000969116
0.00754954
-0.000465234
-0.00760106
0.000533792
0.00806939
-0.000379496
-0.000622652
-0.00137962
2.12795e-06
3.13766e-06
0.00138878
-1.43274e-05
0.000116071
-0.000225401
0.000841346
-0.000132916
-5.58403e-05
-0.000225864
-0.000158174
-0.000159196
-0.00713889
0.000225917
0.0104836
-0.000312213
-0.00325827
0.0117182
0.0435183
-0.00757443
0.00752506
0.0440579
-0.00785549
-0.00798028
-0.00826857
-0.00772104
-0.00803888
0.000356363
0.046149
-0.00766369
0.00174461
0.00056794
0.00189336
-0.00885377
-0.00911852
-0.0086425
-0.00890827
-0.00837968
0.000605
0.00858465
-0.000453657
-0.00152366
-7.00451e-05
6.85521e-05
0.00154427
-1.89908e-05
0.000200029
-0.000230193
0.000855363
-0.000230819
-5.33545e-05
-0.000227547
-0.000156916
-0.000156561
-0.00729244
0.000417635
0.0106388
-0.000517806
-0.00324608
0.00880586
0.0520676
-0.00903998
0.00987678
0.0520394
-0.00905336
0.00212365
0.052781
-0.00876812
0.00364955
0.00230292
0.0039361
-0.00900995
0.00226802
0.00940975
-0.000544676
-0.00174957
-0.000452749
0.000424497
-1.5151e-05
0.00179292
0.000417418
-0.000229229
0.000987179
-0.000467474
-9.96464e-05
-0.00022663
-0.000202159
-0.00017947
-0.007628
0.000622007
0.010808
-0.000549421
-0.00325254
0.0103577
0.0608564
-0.0108253
0.012773
0.0605552
-0.0109316
0.00342429
0.060076
-0.0104999
0.00464833
0.00328599
0.0046179
-0.0096217
0.00406149
0.00970135
-0.000717406
-0.00180087
0.00882248
-0.00145536
-0.00181171
-0.00174803
-0.00172684
0.00116625
0.00115079
0.00131024
0.00128647
-0.00519383
-0.000202908
-0.00152598
0.00146613
-0.00023786
0.00107672
-0.000185015
-0.000206217
-0.000184859
-0.000120084
-0.00122986
0.00118877
-0.000267678
0.000776648
-0.000114803
-0.000118808
-0.000114198
-0.000100033
-0.00116991
0.00118522
-0.000271327
0.00064289
-9.38233e-05
-9.84686e-05
-9.45789e-05
-7.11472e-05
-0.0013392
0.00141804
-0.000273442
0.000454089
-5.74682e-05
-7.11576e-05
-5.97049e-05
0.000184043
-0.0016786
0.00768843
0.00110571
-0.00296149
0.000145622
0.000206252
0.000191513
-0.00163002
-0.00165209
-0.00159943
0.0026728
-0.0289299
-0.00943455
-0.00936443
-0.00893973
-0.00892788
0.000377863
0.000857558
-5.25601e-05
0.000470646
0.0104827
0.0746054
-0.0158988
0.013837
0.0735608
-0.0163617
0.0180309
0.0720538
-0.0161728
0.0032113
0.0666394
-0.0202462
-0.0111129
-0.0111233
-0.0106674
-0.0105499
0.00453178
0.00301345
0.00433368
-0.00914364
0.00384238
0.00986715
-0.00135501
-0.00713791
-0.00443885
0.00449583
0.00873626
-0.00165549
-0.00604337
-0.00453242
0.00452122
0.00796809
-0.00191347
-0.00517551
-0.0046801
0.00492894
0.00705474
-0.00212796
-0.00400056
-0.00545635
0.00620143
0.00571455
-0.00245896
0.0378465
0.0270615
-0.0299259
-0.00315174
-0.0021487
-0.00289911
-0.00212564
-0.00704756
-0.00551186
-0.00671533
-0.00538216
0.0173551
-0.0297372
0.00932469
-0.0195529
0.0105269
-0.0198373
0.0134444
-0.0204417
0.0172675
-0.0208013
0.0142913
-0.0267336
-0.0120564
-0.0119913
-0.0115829
-0.0113774
0.0122159
-0.0273129
-0.01129
-0.0110981
-0.0107218
-0.010466
0.0123253
-0.0283492
-0.010481
-0.0102646
-0.00990043
-0.00963153
0.0132312
-0.0287848
-0.00946284
-0.00909612
-0.0089196
-0.00855145
0.0154062
-0.0294155
-0.00797518
-0.00727835
-0.00758183
-0.0069999
0.0273788
-0.0299229
-0.0313052
0.0114139
0.00743429
-0.00330076
0.0146808
0.0069879
-0.00281982
0.0185691
0.00597489
-0.00211128
0.0257319
0.00318427
-0.00103416
0.00736103
0.000217458
-0.000394434
0.000909482
0.000565478
0.000829885
-0.000181351
0.000326181
0.000324338
0.000922382
0.00806622
0.00718832
0.00804179
0.000470163
0.00762143
0.00156776
-0.000186649
0.000492736
-0.00848425
0.00918071
0.00149104
-0.000563843
0.000877713
-0.010202
0.0110229
0.00153479
-0.00110895
0.0014911
-0.0122315
0.0131935
0.00161313
-0.00193854
0.0684541
0.00182941
-0.0265017
0.00304404
0.00126871
0.00251359
-0.0147501
-0.0149831
-0.0142826
-0.0144426
0.0108399
-0.0243617
0.011682
0.0065114
-0.00463489
0.0146693
0.00613678
-0.00428852
0.0185333
0.00440873
-0.00328102
0.00570411
0.000215374
-0.00285211
0.00541798
0.00569502
0.00533277
0.000204368
0.000444283
0.00038548
0.000242388
0.000458734
0.000112414
0.000358653
0.000121698
0.00656148
-0.000592277
-0.000168402
0.000397182
0.00867742
-0.000396642
-0.00771148
-6.79358e-05
8.6125e-05
0.000102244
-4.67203e-05
-0.00103964
0.000714899
-0.00954317
0.0103612
-0.000875842
-1.6509e-08
0.000169403
0.000170627
6.41727e-06
-0.00100336
0.00120034
-0.011322
0.012276
-0.00154916
2.05412e-05
0.000233337
0.000219629
1.24498e-05
-0.00109105
0.001877
-0.0133293
0.0142387
-0.00248881
0.000168924
0.000487153
0.00044347
0.000133223
-0.00153023
-0.0144787
0.00258968
0.0134129
0.00391818
-0.00361251
0.00222427
-0.0343337
-0.0133631
-0.0125553
-0.0132157
-0.0124627
0.00241286
0.00151176
0.00177736
0.0112382
0.00610141
-0.00497268
0.0136587
0.00590049
-0.00458816
0.00343168
0.00581594
-0.00395569
0.00346397
0.00368837
0.00358717
0.000168475
0.00354063
0.000180045
-0.000241431
-2.28306e-05
0.000183206
-0.00091865
0.000940842
-0.000215728
3.33882e-05
-2.7437e-05
0.000146401
-0.00153511
0.00166117
1.5013e-05
-4.05201e-05
-7.10959e-05
-6.62403e-05
-4.19949e-05
-2.97772e-06
-3.08386e-05
-6.26931e-06
5.40613e-06
-0.00179381
1.5698e-05
0.00183815
-0.00011396
8.07963e-06
-1.38223e-05
4.94487e-06
-1.34895e-05
2.82032e-05
6.68532e-06
2.80031e-05
1.70942e-05
-0.00208738
1.60183e-05
0.00216341
-0.000200277
9.65912e-06
-1.69608e-05
7.10802e-06
-1.81246e-05
4.56638e-05
1.85605e-05
4.53052e-05
3.55842e-05
-0.00257627
-9.2421e-05
0.00274536
-0.000343122
3.15127e-05
-9.93351e-06
2.70772e-05
-1.3183e-05
7.75103e-05
3.97127e-05
7.81974e-05
0.000556242
-0.00242914
-0.00121692
0.00212478
0.0015709
-0.00060583
-0.00876426
0.00443176
0.00974974
0.0022017
-0.00539463
0.0103569
0.0066058
-0.00477035
0.0127525
0.00131675
-0.00436821
0.00150255
0.00128133
0.0015755
0.00304137
0.00180579
-0.0036953
0.00305313
0.00324505
0.00323181
0.00204898
0.00187207
0.00218415
4.34005e-05
-0.000648651
0.00259047
0.00114893
-9.20484e-05
-7.18133e-05
4.62979e-05
-0.000492173
0.000430486
1.87506e-05
6.88438e-05
0.00069953
-8.94985e-05
-0.00105158
0.000731276
0.000855869
-0.000873696
-8.04026e-05
-0.000103607
-8.78576e-05
-0.00594587
0.00476868
-0.00196313
0.00762466
0.00145888
-0.00594315
0.0026295
0.00158379
-0.0048929
0.00289746
0.00271182
0.00305743
0.00151865
0.00162308
0.0015516
0.00028317
0.00278781
0.00130654
-0.000430534
0.000225026
-0.00297382
0.00301847
0.00186316
-0.000326104
7.1562e-05
-0.00184218
-0.00277999
0.0021214
0.00252787
-9.75104e-05
-6.7681e-05
-0.000314183
-0.000278634
0.000205775
0.000385558
6.93543e-05
0.000740116
-0.000462017
-7.26964e-05
0.000528483
0.000378475
-0.000894758
-7.25137e-05
-7.09429e-05
-7.41722e-05
-0.00492464
0.00505678
-0.00108455
0.00653288
0.000782382
-0.00636264
0.000272375
0.00240964
0.00146463
-0.000455687
0.000306634
0.00342341
-0.000484098
-0.00118997
-0.00283697
0.000186369
0.000204868
0.000184192
0.000206412
-0.00392385
0.000256925
0.00363481
-0.00037037
0.000439981
0.000452497
0.000858982
0.00084017
-0.00218865
-0.00272949
3.97796e-05
-0.00330903
0.0018073
0.00424334
-5.13369e-05
-6.76326e-05
-0.000602827
-0.000202879
0.00014598
0.000656446
7.13127e-05
0.000803006
-0.000231324
-6.41576e-05
0.000445241
0.000191467
-0.000956797
-6.18739e-05
-6.25676e-05
-6.29962e-05
-0.00442399
0.00525148
-0.000560079
0.00597605
0.000397338
-0.00664057
0.000358785
0.0018997
0.0019947
-0.000565981
-0.00156954
7.54136e-05
-0.000170363
-0.000393342
0.000346557
0.000252179
-0.000110146
-0.000300367
-0.000374429
-0.00491121
0.000618206
0.00520079
0.000345546
-0.000170677
-0.000261082
-0.000146445
-0.000106919
-0.000840757
-4.48431e-05
3.84731e-05
0.000846168
0.000108096
0.000848532
-0.000114422
-5.74305e-05
0.000404025
9.37666e-05
-0.00100491
-5.60012e-05
-5.66298e-05
-5.69499e-05
-0.00416943
0.00536737
-0.000277541
0.00569777
0.000189129
-0.0068071
0.000515492
-0.00285223
0.00136478
0.00381887
-0.000721996
-1.48149e-05
-0.000667433
-3.86098e-05
-2.09131e-05
0.000750482
-8.59335e-06
-0.000184578
-0.000643546
-0.00526397
0.000316083
0.00542283
0.000670536
-0.000160673
-7.97449e-05
-7.68216e-05
-0.000153299
-0.000920862
-1.2572e-05
1.20564e-05
0.000927636
0.000147158
0.00087738
-5.18175e-05
-5.35848e-05
0.000383663
4.01766e-05
-0.00103582
-5.28817e-05
-5.34544e-05
-5.36859e-05
-0.00405105
0.00542991
-0.000122824
0.00557097
7.23214e-05
-0.00689914
0.000650321
-0.00482674
0.00135808
0.00587188
-0.00090141
3.91198e-05
-0.00101491
-8.71024e-05
3.82852e-05
0.00108722
-6.25532e-05
-0.000303264
-0.000471156
-0.00577013
0.000455889
0.00619518
0.00041448
-0.000214617
-0.00022098
-8.51381e-05
-0.000130573
-0.00103705
-1.26945e-06
4.32474e-06
0.00104064
0.000123991
0.000896185
-1.37364e-05
-5.17348e-05
0.000375486
6.07159e-06
-0.00105647
-5.14708e-05
-5.21114e-05
-5.223e-05
-0.00401487
0.00546016
-3.27017e-05
0.00553289
-5.60607e-07
-0.00694474
0.000714968
-0.00688535
0.00171457
0.00764303
-0.000998339
7.89241e-05
-0.00139744
-0.000168623
0.000109157
0.00148353
-0.000105438
-0.000276364
0.000127969
-0.00663432
0.000464926
0.00699462
-0.000271357
-0.000116561
-0.000242142
-4.61799e-05
-5.30266e-05
-0.0011552
1.03709e-05
-4.4787e-06
0.00115627
4.62368e-05
0.000893583
1.57248e-05
-5.11879e-05
0.000374842
-2.35921e-05
-0.00105452
-5.12951e-05
-5.18625e-05
-5.16839e-05
-0.00402471
0.00545315
3.50919e-05
0.00554394
-7.62811e-05
-0.00693101
-0.00788444
0.000743012
0.00283232
0.00749963
-0.00105458
0.000776277
-0.00138939
0.00660272
-0.0010788
-0.00163168
-0.0013759
-0.00162185
0.000880359
0.00077478
0.00086931
0.000774617
-0.00357964
-0.000691651
-0.000501639
9.17727e-05
0.000333444
0.000900324
-0.000131997
0.000234371
0.000512093
-0.00728528
-4.79644e-05
0.00733219
-0.000744644
2.0656e-05
-0.00127001
5.90957e-05
-3.75031e-05
0.00126008
-3.21641e-05
0.000882919
5.3074e-05
-5.17461e-05
0.000380879
-6.41509e-05
-0.00104475
-5.21229e-05
-5.22455e-05
-5.18474e-05
-0.00409877
0.00542672
0.000126923
0.00562591
-0.000191799
-0.00688883
0.00150625
0.0366313
-0.0125029
-0.00772803
-0.00777179
-0.00758971
-0.00761991
0.0025126
0.00158613
0.00253556
-0.00661544
0.000906937
0.00160106
0.00693249
-0.00131832
-0.00638384
-0.00141797
0.000857286
0.0010037
0.00718275
-0.00124194
0.000698511
-0.007425
0.000568407
0.00782592
-0.000986444
-0.000681389
5.57443e-05
-0.00135696
3.94418e-06
-2.50936e-06
0.00137148
-7.15866e-05
0.000873315
0.000113713
-5.29488e-05
0.000395806
-0.000134177
-0.00103486
-5.39914e-05
-5.3872e-05
-5.29948e-05
-0.00427289
0.0053888
0.000275789
0.0058176
-0.000385372
-0.00682378
0.0114236
0.0399049
-0.0139496
0.00780307
0.040255
-0.0144806
-0.00746788
-0.00773723
-0.00727307
-0.00753105
0.000559463
0.0423831
-0.0142013
0.00196941
0.000735058
0.00200235
-0.00830528
-0.00856686
-0.00808852
-0.00834845
0.000824991
-0.00810363
0.000797183
0.0082385
-0.00119762
6.00359e-05
-0.00151097
-0.000109651
0.000100822
0.00153713
-7.73592e-05
0.000888409
0.000252763
-5.05034e-05
0.000440766
-0.000327366
-0.00105127
-5.2878e-05
-4.98517e-05
-5.01024e-05
-0.00463996
0.00536902
0.00052853
0.00617716
-0.000699742
-0.00673487
0.00894772
0.0465286
-0.016297
0.0103354
0.0462728
-0.0164595
0.00239008
0.0470446
-0.0159535
0.00399929
0.00249649
0.00397285
0.00105122
-0.00853304
0.0027253
0.00867636
-0.00153021
-0.00170064
1.24783e-05
-0.000639562
0.000618686
1.85702e-05
0.00169039
0.000610374
-7.90114e-05
0.000935456
0.000804272
-0.000681792
-0.00103723
-0.000207241
-0.000107434
-0.000237396
-0.0056015
0.00549984
0.000830898
0.00677977
-0.000709951
-0.00679901
0.0105439
0.0527573
-0.0192784
0.0132902
0.0522211
-0.0196271
0.0178573
0.0515832
-0.0196066
0.00464958
0.0484007
-0.0219253
-0.00930597
-0.00956763
-0.00900408
-0.0091625
0.00521773
0.00386492
0.00485936
0.00164733
0.00200011
0.002951
0.00323109
-0.00815332
0.00206121
0.00556444
0.00786941
-0.0026922
-0.00112204
0.0003677
0.00561408
0.00619894
-0.00372463
-0.000986632
-0.00117329
-0.00110271
-0.00579981
0.000558122
0.000529974
0.000640379
-0.000797013
0.000641064
-0.00544187
0.00529094
0.00502114
-0.00459223
-0.000678538
-0.000874345
-0.000842628
0.00074254
0.000743331
0.000787762
-0.000641484
0.000718922
-0.00534392
0.00553675
0.00416214
-0.00492493
-0.000522973
-0.000721381
-0.00068775
0.00079903
0.000795151
0.000830581
-0.000413386
0.000809405
-0.00596036
0.0064895
0.00289925
-0.00535229
-0.000246964
-0.000511764
-0.000393064
0.000905148
0.000863737
0.000910891
0.000179947
-0.00688823
0.00526377
0.0064591
0.00121472
-0.00622934
0.00206832
-0.0424002
0.000381267
0.000762881
-0.000542211
-0.00018145
-0.00678855
-0.00643646
-0.00700603
-0.00673373
0.0100948
0.0604334
-0.0253409
0.0122091
0.059596
-0.0258521
0.0157814
0.057921
-0.0260839
0.0188806
0.0535975
-0.0285433
0.0188532
0.048512
-0.029649
-0.00863804
-0.00803789
-0.0085477
-0.00822636
0.00269554
0.00321637
0.00416025
0.00454131
0.0185044
0.0431201
-0.0322305
-0.00712432
-0.00665864
-0.00702529
-0.00670417
0.0032862
0.00375669
0.00483602
0.00509264
0.0193134
0.0380889
-0.0342265
-0.00602741
-0.00553874
-0.00594982
-0.00566822
0.00374077
0.00423312
0.00516281
0.00537626
0.0215905
0.032701
-0.0361528
-0.00500877
-0.00430886
-0.00494226
-0.00458297
0.00414578
0.00478643
0.00542081
0.00566496
0.0243076
0.026142
-0.0382442
-0.003608
-0.00255486
-0.00360745
-0.00306398
0.00488099
0.00534522
0.00587644
0.00611698
0.0274152
0.0169264
-0.0422214
-0.00225225
-0.00104901
-0.0025848
-0.00185252
0.00911374
-0.043148
0.00906971
-0.0304882
0.00992663
-0.0309202
0.0111159
-0.0314964
0.0120982
-0.0323242
0.0124
-0.0358156
0.0124815
-0.0371581
0.012802
-0.0386497
0.0137268
-0.0398751
0.0151453
-0.0412742
0.019598
-0.0432707
-0.0455008
0.0115447
0.00760461
-0.00550557
0.0150052
0.00716721
-0.00494748
0.0194706
0.00617685
-0.00425746
0.0267418
0.00373738
-0.00357532
0.0356067
0.000219735
-0.00306257
0.000774537
0.000406138
0.000857909
0.0440463
0.00025359
-0.00523256
0.00104131
0.000362142
0.00107672
-2.43514e-05
0.000694869
0.000447681
0.00139629
0.0520789
0.00034931
-0.00886558
0.00128817
0.000360765
0.00128253
0.000742287
0.00162808
0.00133402
0.00232201
0.0602077
0.000433498
-0.0133086
0.00162636
0.000306742
0.00154952
0.00148898
0.0026614
0.00217492
0.00343437
0.0658093
0.00105707
-0.0193193
0.00249537
0.000667752
0.00232764
0.00277596
0.00416154
0.00362082
0.00509613
0.0660111
0.00177257
-0.0265969
0.00313374
0.000977865
0.00243998
0.00929806
-0.0285211
0.0119313
0.00643124
-0.00695187
0.0150699
0.00614473
-0.0064032
0.0191801
0.00444662
-0.00566134
0.00575203
0.000331094
-0.00443506
0.00564548
0.00568049
0.0056188
0.000389766
0.000561154
0.000522115
0.000193986
0.00649562
-0.000335938
-0.000381872
0.000303652
0.00825181
-0.000129665
-0.000637072
-0.00753448
0.000908402
-0.00906272
0.00972763
5.68131e-05
-0.00127996
0.00169532
-0.0105965
0.011317
0.000144422
-0.00212601
0.00283388
-0.0121849
0.0129196
0.000816843
-0.00332798
-0.0131617
0.00446805
0.0123577
0.00252071
-0.00441188
0.00153854
-0.0402836
-0.0125425
-0.0125088
-0.0126406
-0.012406
0.00190418
0.000745395
0.000826989
0.0115268
0.00571859
-0.00734723
0.0142083
0.00567561
-0.00679966
0.00368368
0.00561661
-0.00575326
0.00358381
0.00383501
0.00373405
0.000330368
0.00389118
0.000262741
-0.00046946
-0.00023127
0.000127302
0.000835762
-0.00456718
0.00117504
0.00116667
0.00113843
0.00120097
-0.000196013
-0.000223927
-0.000230781
-0.000195032
1.63519e-05
-0.00144118
0.000151066
0.00150834
-0.000198121
-3.62213e-05
0.000176524
-0.00168315
7.6336e-05
0.00170715
-8.5691e-05
-0.000190873
0.000309164
-0.00194115
6.98397e-05
0.00198815
-9.97932e-05
-0.000326009
0.000523016
-0.00233704
-6.09602e-05
0.00243223
-9.0629e-06
-0.000548124
-0.00239276
0.000879889
-0.000846106
0.00109038
-0.000858879
0.00212749
-0.00884627
0.00620541
0.00884157
0.00191353
-0.00657567
0.010846
0.00582226
-0.00728052
0.0134819
0.00122278
-0.00662381
0.0014452
0.00114275
0.00148584
0.00322773
0.00178682
-0.0056983
0.003209
0.00342104
0.00345482
0.00206077
0.0017894
0.00215288
0.000168833
-0.000654074
0.00284779
0.00113172
-0.000266112
-8.56191e-05
9.81767e-05
-0.000568529
0.000500526
-2.60649e-05
8.17075e-05
0.00124139
-0.000200658
-0.00115215
0.000793517
0.000965335
-0.00121496
-0.000150963
-6.72018e-05
-0.000214323
-0.00527202
0.00678697
-0.00201184
0.00627142
0.001593
-0.00736751
0.00276391
0.00134045
-0.0076095
0.00301384
0.00278055
0.00314807
0.00125441
0.00136866
0.00129552
0.00060097
0.00293895
0.00118836
-0.000740681
0.000439017
-0.00312193
0.00316782
0.00184099
-0.000538212
0.000126186
-0.0018213
-0.00292541
0.00227991
0.00250458
-0.000163002
-9.3063e-05
-0.000263922
-0.00033192
0.000251174
0.000342478
9.55846e-05
0.00130431
-0.000493288
-5.641e-05
0.000398076
0.000395957
-0.00138391
-5.25095e-05
-5.44144e-05
-5.78339e-05
-0.00383579
0.00730873
-0.00118017
0.00483942
0.000851624
-0.0079836
0.000649355
0.00247346
0.00119051
-0.000865511
0.000648908
0.00363099
-0.000829043
-0.00102778
-0.00297903
0.000123613
0.000151135
0.000129504
0.00015289
-0.00415123
0.000456364
0.00383431
-0.000555269
0.000443821
0.000451673
0.000856806
0.000848363
-0.00218451
-0.00286047
5.92304e-05
-0.00330261
0.00191578
0.00425898
-7.05519e-05
-9.69248e-05
-0.000578001
-0.000221762
0.00016137
0.000632725
0.000102925
0.00137996
-0.000231936
-4.58822e-05
0.000305928
0.000192016
-0.00146132
-4.26327e-05
-4.78034e-05
-4.83765e-05
-0.00319238
0.00764629
-0.000605902
0.00409287
0.000429063
-0.00836969
0.00079751
0.00193238
0.00174225
-0.00105984
-0.00129474
0.000167814
-0.000103801
-0.000415122
0.000372634
0.00017518
-0.000196387
-0.000273812
-0.000277756
-0.0049566
0.000604369
0.00519804
0.000202641
-0.000120841
-0.000257033
-0.000118663
-0.000120555
-0.000819731
-4.29612e-05
4.07366e-05
0.000820095
0.000122602
0.00143486
-0.000110875
-3.72877e-05
0.00025615
8.81752e-05
-0.00151485
-3.58309e-05
-4.00436e-05
-4.03358e-05
-0.00286776
0.00784937
-0.000297415
0.0037165
0.000199659
-0.00860013
0.000931116
-0.00264329
0.00136075
0.00363178
-0.00115525
4.4931e-05
-0.000617506
-3.48385e-05
-3.45205e-05
0.000716978
-7.49464e-05
-0.000125987
-0.000531925
-0.00514843
0.000327552
0.00526818
0.000345644
-9.75317e-05
-4.16336e-05
4.29664e-06
-0.000135277
-0.000872889
-2.99283e-06
9.73602e-06
0.000872432
0.000129087
0.00147186
-4.76646e-05
-3.34065e-05
0.000235724
3.80558e-05
-0.00155713
-3.26597e-05
-3.74978e-05
-3.73259e-05
-0.00272361
0.00796246
-0.000126101
0.003547
6.88452e-05
-0.00872839
0.00113728
-0.00463637
0.00134573
0.00566981
-0.00136284
0.00013137
-0.000980916
-9.24701e-05
4.07821e-05
0.00105413
-0.000152922
-0.000227156
-0.000249796
-0.00555964
0.000492992
0.00590325
4.41635e-05
-0.000144837
-0.000188422
-7.02165e-05
-0.000104229
-0.000963488
1.36945e-06
6.63079e-06
0.000964161
9.56333e-05
0.00149747
-9.08689e-06
-3.00943e-05
0.00022392
-2.17111e-08
-0.00158597
-3.00617e-05
-3.30704e-05
-3.31095e-05
-0.0026836
0.00801807
-2.11267e-05
0.0035026
-2.45299e-05
-0.00879124
0.00126353
-0.00666132
0.00171047
0.00738732
-0.00151042
0.000183489
-0.00135695
-0.000178631
0.000113557
0.00144498
-0.000206294
-0.000242151
0.00045317
-0.00625483
0.000579699
0.00654063
-0.0006481
-0.000107653
-0.000247985
-7.23384e-05
-1.97946e-05
-0.00107008
-1.14276e-05
1.48136e-05
0.00107371
1.28725e-05
0.00149654
2.45001e-05
-3.01503e-05
0.000226092
-3.07312e-05
-0.00158719
-3.05955e-05
-3.44878e-05
-3.40084e-05
-0.00272727
0.00799705
7.44897e-05
0.00355399
-0.000134811
-0.00876329
-0.00758105
0.00134874
0.00282728
0.00715948
-0.00161918
0.0013639
-0.00134377
0.00629742
-0.00162436
-0.00158187
-0.00132973
-0.00157257
0.000895841
0.000804672
0.000887942
0.000791845
-0.00358864
-0.000616947
-0.000546754
0.000227099
0.000372741
0.000822667
-0.000258618
-6.31447e-05
0.000966044
-0.00678138
0.000245743
0.00681981
-0.00118641
7.29537e-05
-0.00119482
7.03002e-06
7.09995e-06
0.00118745
-7.95756e-05
0.00148924
6.31967e-05
-2.5588e-05
0.00022749
-8.00796e-05
-0.00160481
-2.50546e-05
-2.36491e-05
-2.08049e-05
-0.00287937
0.00794007
0.000211075
0.00373645
-0.000313497
-0.00869464
0.00164945
0.0337584
-0.0172951
-0.00729826
-0.00732721
-0.00715722
-0.00717593
0.00256393
0.00164365
0.00249508
-0.00620727
0.0017468
0.001775
0.00643514
-0.00209984
-0.00585726
-0.00161664
0.00161945
0.00123826
0.00658944
-0.00197328
0.00127252
-0.00689912
0.000945395
0.00722405
-0.00156744
-0.000975409
0.000119174
-0.00128134
-9.2995e-05
8.24866e-05
0.00129824
-0.000125402
0.001523
0.000178431
-6.34534e-06
0.000253647
-0.000227291
-0.00169121
-8.89117e-06
-8.85202e-06
-1.25617e-05
-0.00325589
0.00783335
0.00043448
0.0041356
-0.000595006
-0.00855247
0.0113436
0.0360456
-0.0192571
0.00839726
0.0361003
-0.0201336
-0.00687242
-0.00709326
-0.006682
-0.00685322
0.000972651
0.0377039
-0.0198805
0.00227469
0.00102954
0.00219231
-0.00755311
-0.00777181
-0.00728691
-0.0074851
0.00164377
-0.00738265
0.00138041
0.00744887
-0.00211786
0.000128118
-0.00140568
-0.000319607
0.00030737
0.00143105
-0.000141317
0.00155089
0.000451606
-5.96128e-05
0.000431168
-0.000532333
-0.00165629
-4.4323e-05
-6.96586e-06
-0.000134134
-0.00404936
0.00768885
0.000815274
0.00481241
-0.00100731
-0.00825983
0.00897735
0.041207
-0.0221219
0.0101473
0.0408821
-0.0224116
0.00271095
0.0414029
-0.021821
0.00383077
0.0022773
0.00349547
0.00226094
-0.00749886
0.00322399
0.00749888
-0.00277467
0.00203734
-0.00153729
0.0073109
-0.00316931
-0.00155449
-0.00147037
-0.00146681
0.00096222
0.00109696
0.000861515
0.00102164
-0.00409265
0.000556906
-0.000207801
-0.00140943
0.00135902
0.000996758
-0.00067866
-0.000187396
-0.000222037
-0.000207308
0.000975191
-0.000156953
-0.00114773
0.00109896
0.000758418
-0.00104004
-0.000141184
-0.000175565
-0.000171066
0.0010267
-0.000147325
-0.00112559
0.0011306
0.000671759
-0.00110013
-0.000129448
-0.000165809
-0.000160741
0.00106441
-0.000117409
-0.00133836
0.00142103
0.000487992
-0.00116482
-8.95321e-05
-0.000135946
-0.000127336
0.00147085
0.000491282
-0.00140453
0.0061698
7.89422e-05
-0.00767764
0.000439383
0.000139851
0.000221002
0.00147878
0.00148943
0.00145495
-0.0013431
-0.00152936
-0.00147963
0.0019304
-0.0457594
-0.00604967
-0.00592733
-0.00689141
-0.00667946
0.00865851
0.008494
0.00845022
0.00840808
0.000794783
0.000961899
-0.000347909
-8.13765e-05
0.0101901
0.0457618
-0.025706
0.012508
0.0452825
-0.0263465
0.0158293
0.0449028
-0.0264283
0.00355386
0.041999
-0.0300023
-0.00822995
-0.00830218
-0.00808521
-0.00802228
0.00445488
0.00280162
0.00373524
-0.00703006
0.00356007
0.00409364
0.00712597
-0.00419593
-0.00590009
0.00498529
-0.00459227
0.00463355
0.0061547
-0.00528116
-0.00499973
0.00577669
-0.00466007
0.00463002
0.00536374
-0.00611053
-0.00424589
0.00615206
-0.00476292
0.00492026
0.00452396
-0.00658734
-0.00297709
0.00650382
-0.00527553
0.00541479
0.00332727
-0.00699315
0.028869
0.0106385
-0.0448857
-0.00105829
-4.89222e-06
-0.00205953
-0.00125259
0.00801266
0.00814047
0.00784604
0.00810475
-0.00571803
-0.00480891
-0.00616183
-0.00566162
0.00370319
-0.0467264
0.00981615
0.0501096
-0.031182
0.011578
0.0493969
-0.0317294
0.0148054
0.0479324
-0.0323423
0.01786
0.0441893
-0.0337889
0.0172463
0.0399495
-0.0378079
-0.0078663
-0.00764207
-0.00798243
-0.00768656
0.016713
0.0355856
-0.0396471
-0.00699787
-0.00658546
-0.00715618
-0.00689619
0.0172684
0.0310022
-0.0415453
-0.006114
-0.00563091
-0.00638656
-0.00610701
0.0181857
0.0260236
-0.0430391
-0.00511532
-0.00439839
-0.00546673
-0.00507386
0.0190984
0.0198493
-0.0445511
-0.00385882
-0.00269582
-0.00423178
-0.00366843
0.0210956