/*--------------------------------*- C++ -*----------------------------------*\
| =========                 |                                                 |
| \\      /  F ield         | OpenFOAM: The Open Source CFD Toolbox           |
|  \\    /   O peration     | Version:  v1906                                 |
|   \\  /    A nd           | Web:      www.OpenFOAM.com                      |
|    \\/     M anipulation  |                                                 |
\*---------------------------------------------------------------------------*/
FoamFile
{
    version     2.0;
    format      ascii;
    class       volVectorField;
    location    "10";
    object      U;
}
// * * * * * * * * * * * * * * * * * * * * * * * * * * * * * * * * * * * * * //

dimensions      [0 1 -1 0 0 0 0];


internalField   nonuniform List<vector> 
34761
(
(0.114661 0.0642884 -0.00730094)
(0.153147 0.0600357 -0.00492567)
(0.182461 0.0470112 -0.00284356)
(0.254256 0.0547295 0.0133097)
(0.238872 0.0539567 -0.00274048)
(0.342301 0.0583136 -0.00321887)
(0.42562 0.0604233 -0.00606483)
(0.523325 0.0612564 -0.0113442)
(0.65233 0.0605431 -0.0189115)
(0.868047 0.0421493 -0.0998605)
(1.04762 0.106101 -0.114617)
(0.117187 0.0975104 -0.014666)
(0.148656 0.0946176 -0.0135834)
(0.180219 0.0746197 -0.00194774)
(0.178124 0.0359786 -0.00875026)
(0.284115 -0.00926496 -0.00287364)
(0.400112 0.0108786 -0.00715115)
(0.483598 0.0229799 -0.011613)
(0.582537 0.0295002 -0.0179076)
(0.703455 0.0570374 -0.0241637)
(0.779882 0.121428 -0.0148112)
(0.98103 0.1732 -0.170567)
(0.117055 0.0647581 -0.0167802)
(0.144222 0.0556742 -0.0156091)
(0.179539 0.0455015 -0.0130298)
(0.159684 0.0128093 -0.00451853)
(0.154798 -0.0459489 -0.0012329)
(0.24805 -0.028521 -0.00216452)
(0.257602 -0.0126989 -0.00240968)
(0.301702 -0.0152867 -0.00305242)
(0.376886 -0.0122753 -0.00372809)
(0.416866 0.336946 -0.0497581)
(0.483354 0.0829367 -0.0781433)
(0.106398 0.0824059 -0.0145636)
(0.131101 0.0854388 -0.0136675)
(0.16499 0.0984228 -0.010632)
(0.139467 0.0425847 -0.00261164)
(0.0918743 0.00484304 -0.0011546)
(0.151674 0.159605 0.0168163)
(0.422283 0.0735764 -0.0832757)
(0.122458 0.0995424 -0.0143174)
(0.114962 0.0556962 -0.00871772)
(0.140625 0.0726272 -0.00607565)
(0.127214 0.0988978 -0.000917916)
(0.0512231 0.0716813 -0.0021246)
(0.137279 0.0829618 0.0148094)
(0.395225 0.0422523 -0.0885765)
(0.104929 0.0767793 -0.00580009)
(0.136405 0.0570767 -0.00499282)
(0.182068 0.0936461 -0.00438604)
(0.112 0.165401 -0.000719204)
(0.0393901 0.121887 -0.00186582)
(0.133061 0.0451958 0.0112096)
(0.38156 0.0215977 -0.0916673)
(0.0940252 0.0898004 -0.00536391)
(0.0644639 0.0530799 -0.00531394)
(0.0929944 0.225056 0.0108299)
(0.0276788 0.157903 -0.000529259)
(0.132209 0.0240392 0.0079047)
(0.374992 0.0102479 -0.093256)
(0.0832879 0.159688 -0.00789605)
(-0.00767371 0.14874 -0.00239314)
(0.285085 0.215626 0.0168027)
(0.0493268 0.168341 0.00112444)
(0.133362 0.0116793 0.00518116)
(0.372364 0.00402837 -0.0939934)
(0.0802053 0.257806 -0.0094337)
(-0.00110357 0.2023 -0.00320342)
(0.23826 0.240219 0.0149935)
(0.0350074 0.202046 0.000313853)
(0.13596 0.00360198 0.00296868)
(0.372092 0.000646205 -0.0942684)
(0.0789081 0.363786 -0.010246)
(-0.00184708 0.281145 -0.00431144)
(0.0953531 0.293931 0.000856662)
(0.0111293 0.231453 -0.0011168)
(0.135581 -0.00470754 0.00277157)
(0.371811 -0.00162784 -0.094229)
(0.114146 0.407942 -0.0119639)
(0.220586 0.348252 -0.0128288)
(0.0452408 0.153618 -0.00406252)
(-0.00679252 0.34838 -0.00622465)
(-0.00789795 0.254174 -0.00257302)
(0.133025 -0.0125197 0.00463694)
(0.372831 -0.00575419 -0.0939383)
(0.0997654 0.477194 -0.0452284)
(0.0675979 0.357251 -0.0158233)
(0.0568235 0.331181 -0.0135648)
(0.0320563 0.356932 -0.0105423)
(-0.00393943 0.268749 -0.0033472)
(0.131825 -0.0234879 0.00666029)
(0.376143 -0.0122501 -0.0934029)
(0.143477 0.463491 -0.0499209)
(0.142678 0.489443 -0.051567)
(0.0504562 0.522863 -0.0493928)
(0.0106209 0.398497 -0.0137221)
(0.00469961 0.299932 -0.0032569)
(0.131477 -0.0399325 0.00775187)
(0.381958 -0.0229079 -0.0929106)
(0.107303 0.557667 -0.0600931)
(0.106961 0.54203 -0.0592188)
(0.134398 0.549509 -0.0567577)
(0.0851953 0.446177 -0.0146745)
(0.0650493 0.345324 -0.00291931)
(0.146546 -0.0765373 -0.00555655)
(0.387112 -0.0368637 -0.0925094)
(0.117379 0.677922 -0.0729187)
(0.129309 0.684003 -0.0730029)
(0.178168 0.687102 -0.0665377)
(0.152169 0.475253 -0.0392376)
(0.256122 0.434785 -0.0514556)
(0.292414 0.197886 -0.0326792)
(0.229335 0.134423 -0.0336459)
(0.223823 0.110979 -0.033067)
(0.261369 0.0765091 -0.0308685)
(0.381213 0.00367245 -0.0760537)
(0.697428 -0.00446998 -0.223682)
(0.115157 0.730966 -0.115006)
(0.133661 0.718241 -0.118773)
(0.200643 0.705942 -0.116087)
(0.212332 0.666188 -0.164973)
(0.135261 0.481974 -0.0598462)
(0.208923 0.388631 -0.0655502)
(0.213879 0.347475 -0.0709846)
(0.226662 0.305194 -0.0753981)
(0.27225 0.24562 -0.0809644)
(0.32767 0.175149 -0.238844)
(0.602861 0.0630056 -0.231846)
(0.105025 1.06418 -0.144088)
(0.118244 1.05324 -0.146178)
(0.129668 1.02648 -0.151131)
(0.194345 0.95225 -0.15387)
(0.203469 0.879887 -0.220633)
(0.14172 0.829456 -0.223818)
(0.144708 0.777224 -0.230519)
(0.147233 0.720691 -0.231307)
(0.164792 0.639067 -0.2358)
(0.19053 0.505532 -0.231465)
(0.480365 0.377229 -0.241785)
(0.115952 0.0693868 -0.0266937)
(0.154109 0.0645497 -0.0214655)
(0.195688 0.0592626 -0.0144958)
(0.243068 0.0329607 0.00437725)
(0.377399 0.0539594 -0.00656594)
(0.328032 0.0639826 -0.0289245)
(0.407666 0.0618964 -0.0359129)
(0.49904 0.0634117 -0.0598683)
(0.613311 0.0619316 -0.0956872)
(0.799053 0.0451013 -0.296072)
(0.866608 0.102934 -0.267882)
(0.118347 0.100798 -0.0415559)
(0.159272 0.0970389 -0.0384506)
(0.187089 0.0774584 -0.0233226)
(0.258727 0.0459025 -0.0214415)
(0.279014 -0.0117867 -0.00687248)
(0.388202 0.0196574 -0.0245309)
(0.467309 0.0210503 -0.0425433)
(0.555361 0.0252486 -0.069811)
(0.655421 0.0531861 -0.106265)
(0.697752 0.114789 -0.154739)
(0.787455 0.148983 -0.372432)
(0.118252 0.0598086 -0.0456838)
(0.14666 0.0513341 -0.0420172)
(0.179347 0.0319201 -0.0352267)
(0.152898 -0.00691653 -0.0070356)
(0.167728 -0.0385712 0.00757358)
(0.309298 -0.0258433 0.00852995)
(0.342422 -0.00415317 -0.0188393)
(0.401656 -0.00476217 -0.0335575)
(0.501073 0.0106553 -0.0568772)
(0.440369 0.232979 -0.115625)
(0.405423 0.0911428 -0.248984)
(0.108709 0.077125 -0.0428293)
(0.135573 0.0827541 -0.0391049)
(0.164911 0.0988657 -0.0319503)
(0.132414 0.0392269 0.000176331)
(0.0862966 -0.00132855 0.0181729)
(0.128841 0.186947 -0.147802)
(0.31451 0.0770136 -0.268023)
(0.125616 0.0897232 -0.0441732)
(0.122695 0.0553148 -0.013108)
(0.143297 0.0762788 -0.0108435)
(0.121781 0.100652 -0.00356147)
(0.0440926 0.0687507 0.0179536)
(0.101019 0.0790022 -0.158546)
(0.269444 0.0433281 -0.285434)
(0.106443 0.06999 -0.0178707)
(0.145457 0.0476517 -0.019368)
(0.190002 0.102313 -0.015204)
(0.104196 0.171914 -0.00249485)
(0.030886 0.120523 0.0162508)
(0.0884664 0.0399684 -0.171352)
(0.244943 0.0223365 -0.297702)
(0.092762 0.0803255 -0.0235152)
(0.0685252 0.0364771 -0.0157594)
(0.0252042 0.231751 0.0161713)
(0.00888016 0.158131 0.0216138)
(0.0812515 0.0196791 -0.18057)
(0.232199 0.0108792 -0.30499)
(0.0811886 0.15794 -0.0299815)
(-0.0138892 0.137372 0.00849119)
(0.0139673 0.232463 0.0301009)
(0.00356786 0.168057 0.0295819)
(0.0773226 0.00872247 -0.186392)
(0.22627 0.00453644 -0.308945)
(0.0784449 0.253485 -0.0371215)
(-0.00328038 0.203096 -0.00731373)
(0.023319 0.261585 0.0195956)
(0.0001295 0.190997 0.0264846)
(0.0755425 0.00189802 -0.190211)
(0.224479 0.000756732 -0.310856)
(0.0780575 0.357164 -0.0408656)
(-0.00370478 0.284597 -0.0151222)
(0.0286635 0.300733 -0.00871117)
(-0.00332795 0.216738 0.0121405)
(0.0754101 -0.00364838 -0.189674)
(0.224979 -0.00255621 -0.310267)
(0.113729 0.395119 -0.045162)
(0.214068 0.336528 -0.0472987)
(0.059205 0.150521 -0.0196688)
(-0.00563027 0.339138 -0.0299077)
(-0.0111495 0.240533 -0.00291413)
(0.0767707 -0.0109516 -0.187568)
(0.22869 -0.00740311 -0.308389)
(0.0991505 0.447267 -0.123155)
(0.0717809 0.340526 -0.0535472)
(0.0586515 0.31699 -0.0505716)
(0.0352034 0.34787 -0.0399548)
(-0.00494196 0.261971 -0.0105401)
(0.0796189 -0.0231242 -0.185418)
(0.236998 -0.0153189 -0.305838)
(0.139932 0.429286 -0.136377)
(0.139856 0.45008 -0.140429)
(0.0596261 0.480688 -0.135108)
(0.0198581 0.387876 -0.0467282)
(0.00934823 0.296183 -0.00977436)
(0.0856378 -0.052343 -0.186273)
(0.251518 -0.029366 -0.305606)
(0.108218 0.509333 -0.160342)
(0.109906 0.494454 -0.160541)
(0.143584 0.506509 -0.154778)
(0.100414 0.429296 -0.0616492)
(0.101633 0.340486 -0.00627641)
(0.16511 -0.146677 -0.203319)
(0.275938 -0.0422165 -0.317914)
(0.117071 0.591464 -0.191068)
(0.135046 0.591789 -0.192795)
(0.186061 0.592347 -0.188713)
(0.229406 0.577664 -0.206499)
(0.223 0.379548 -0.115034)
(0.26418 0.287504 -0.147823)
(0.251605 0.220587 -0.192626)
(0.254969 0.179884 -0.207257)
(0.291298 0.118987 -0.226109)
(0.333154 0.034666 -0.293385)
(0.436875 0.00910739 -0.488754)
(0.111062 0.635124 -0.268473)
(0.13077 0.623508 -0.274563)
(0.161304 0.607846 -0.27333)
(0.212201 0.549816 -0.317265)
(0.232804 0.510842 -0.294234)
(0.215273 0.431165 -0.330741)
(0.222732 0.365818 -0.354797)
(0.232888 0.29859 -0.380097)
(0.281836 0.214803 -0.416789)
(0.281775 0.128593 -0.47661)
(0.38849 0.0397948 -0.488586)
(0.104271 0.811449 -0.32935)
(0.112884 0.802689 -0.333587)
(0.124109 0.779777 -0.34111)
(0.139713 0.737572 -0.347516)
(0.146971 0.657392 -0.413957)
(0.146659 0.606092 -0.423713)
(0.148439 0.54963 -0.438188)
(0.153717 0.48864 -0.447916)
(0.17105 0.416272 -0.461842)
(0.182131 0.29178 -0.484681)
(0.295599 0.190506 -0.513268)
(0.116531 0.0720755 -0.0525049)
(0.157015 0.0672448 -0.046223)
(0.199174 0.0624881 -0.0375634)
(0.264669 0.0352781 -0.0289987)
(0.369266 0.0389593 -0.0126858)
(0.470063 0.0408047 -0.0438662)
(0.564251 0.0450382 -0.0946669)
(0.652505 0.0512304 -0.14884)
(0.770355 0.0760787 -0.234608)
(0.771007 0.0747624 -0.331697)
(0.814318 0.102877 -0.330566)
(0.119472 0.102301 -0.0695392)
(0.164175 0.0985995 -0.0643323)
(0.191951 0.0797991 -0.0548593)
(0.267617 0.0553469 -0.0495393)
(0.278413 -0.000359086 -0.0104256)
(0.378392 0.00352377 -0.0198417)
(0.451919 0.00496676 -0.0494234)
(0.529841 0.00436194 -0.0871457)
(0.611566 0.0272447 -0.141262)
(0.640313 0.084531 -0.239157)
(0.721352 0.107138 -0.485277)
(0.119847 0.0565145 -0.0740584)
(0.152378 0.0503182 -0.0678822)
(0.186177 0.0302004 -0.0593838)
(0.169594 -0.00226759 -0.0127093)
(0.238786 -0.0458297 0.00471051)
(0.278979 -0.027154 -0.00725589)
(0.322932 -0.0221767 -0.0349365)
(0.378473 -0.0253021 -0.0603987)
(0.464273 -0.0117959 -0.0977986)
(0.446689 0.154247 -0.183092)
(0.390033 0.0628941 -0.333221)
(0.11287 0.0714373 -0.0728893)
(0.143202 0.0785284 -0.0651561)
(0.175039 0.0965644 -0.0547061)
(0.140465 0.0381194 -0.00504363)
(0.0987362 -0.0108574 0.0203468)
(0.118496 0.179748 -0.223315)
(0.270482 0.0842885 -0.354796)
(0.128729 0.0768866 -0.0767956)
(0.130488 0.0502188 -0.0254138)
(0.150292 0.0757101 -0.0191112)
(0.128488 0.0993219 -0.00510776)
(0.0532725 0.0588871 0.0233554)
(0.0822362 0.0829867 -0.260657)
(0.209644 0.0470939 -0.381121)
(0.107695 0.0579989 -0.0382988)
(0.155168 0.037335 -0.0353218)
(0.201077 0.102891 -0.0232042)
(0.108784 0.172006 -0.0028132)
(0.0330524 0.115544 0.0231653)
(0.0691129 0.0400508 -0.276828)
(0.177772 0.0240467 -0.399612)
(0.0923745 0.0670101 -0.0467776)
(0.0712081 0.0215853 -0.0329006)
(0.0195152 0.234859 0.0111277)
(0.00780488 0.154421 0.0249655)
(0.0614313 0.0187482 -0.287927)
(0.161326 0.0114849 -0.410768)
(0.0811539 0.14904 -0.0500838)
(-0.0147059 0.12995 -0.00126199)
(0.00416758 0.226172 0.0194037)
(0.000833917 0.159625 0.0268191)
(0.0575902 0.00813476 -0.295603)
(0.154 0.00445838 -0.416943)
(0.0779745 0.244155 -0.0593139)
(-0.00205774 0.197397 -0.0251619)
(0.0180448 0.250713 0.00665009)
(-0.00163654 0.177804 0.0226582)
(0.0561168 0.000864506 -0.300867)
(0.152031 -0.000141036 -0.419816)
(0.0781239 0.345481 -0.0656721)
(-0.0012473 0.277098 -0.0335031)
(0.0297747 0.282357 -0.0236231)
(-0.000885635 0.201268 0.00743654)
(0.05607 -0.005142 -0.300497)
(0.154312 -0.00500163 -0.418395)
(0.113814 0.378345 -0.0739957)
(0.214475 0.321907 -0.0756044)
(0.0694453 0.138147 -0.0429732)
(0.00764864 0.315173 -0.0503905)
(-0.00351063 0.228418 -0.0106785)
(0.0576751 -0.0133596 -0.298137)
(0.161792 -0.0125683 -0.414986)
(0.099531 0.416786 -0.186852)
(0.0799311 0.315756 -0.0919661)
(0.0683848 0.290618 -0.0857675)
(0.0495067 0.322992 -0.0669157)
(0.0104327 0.247034 -0.0193342)
(0.0613309 -0.0376801 -0.308376)
(0.17814 -0.0242776 -0.409442)
(0.137794 0.391718 -0.206852)
(0.14021 0.40668 -0.21407)
(0.0731475 0.429436 -0.208095)
(0.0422086 0.352677 -0.0887005)
(0.0481035 0.274644 -0.0230238)
(0.0716855 -0.0872792 -0.299773)
(0.202919 -0.0438261 -0.407816)
(0.107683 0.457828 -0.23839)
(0.111544 0.442095 -0.240338)
(0.138112 0.450593 -0.230992)
(0.125229 0.368805 -0.134229)
(0.198585 0.369119 -0.141333)
(0.265637 0.196383 -0.13582)
(0.20787 0.15483 -0.196232)
(0.209106 0.14187 -0.206036)
(0.25671 0.10555 -0.206775)
(0.33242 -0.0172515 -0.395558)
(0.393742 0.00620685 -0.572968)
(0.115197 0.515318 -0.279484)
(0.128756 0.51541 -0.285286)
(0.176977 0.516439 -0.285943)
(0.190795 0.505091 -0.330384)
(0.163396 0.346611 -0.204315)
(0.217508 0.284785 -0.269812)
(0.219014 0.247367 -0.306652)
(0.22889 0.209939 -0.323998)
(0.262524 0.15267 -0.336559)
(0.32439 0.10844 -0.546734)
(0.369589 0.0415955 -0.558755)
(0.109193 0.552337 -0.349542)
(0.126942 0.542217 -0.355058)
(0.150907 0.529798 -0.360268)
(0.203106 0.477317 -0.377422)
(0.217355 0.457014 -0.425323)
(0.194309 0.400077 -0.448044)
(0.200203 0.346711 -0.468743)
(0.20818 0.286086 -0.486614)
(0.222091 0.210102 -0.505899)
(0.228605 0.137582 -0.547656)
(0.281535 0.0476109 -0.566568)
(0.103738 0.641315 -0.41428)
(0.110681 0.633563 -0.419445)
(0.120389 0.612998 -0.424726)
(0.130544 0.576061 -0.436115)
(0.134978 0.503314 -0.455083)
(0.137286 0.454989 -0.473052)
(0.140172 0.399745 -0.491317)
(0.14536 0.341745 -0.50933)
(0.154979 0.271847 -0.531713)
(0.162037 0.187801 -0.56159)
(0.202079 0.0968829 -0.59357)
(0.11672 0.0737849 -0.079872)
(0.15698 0.0694554 -0.0726822)
(0.198034 0.0663105 -0.0642901)
(0.255354 0.040067 -0.0573325)
(0.345755 0.046423 -0.0581565)
(0.43924 0.0464649 -0.0817842)
(0.527309 0.0451219 -0.117904)
(0.60493 0.0450268 -0.167747)
(0.703603 0.0612695 -0.229521)
(0.697489 0.0696932 -0.31548)
(0.75778 0.0549236 -0.362905)
(0.120853 0.103698 -0.0978178)
(0.16762 0.100936 -0.0892382)
(0.194856 0.0859398 -0.0809193)
(0.265375 0.0697398 -0.0555606)
(0.264277 0.0213396 -0.0328041)
(0.34306 0.0186651 -0.0569417)
(0.40843 0.0196686 -0.0905507)
(0.478293 0.019755 -0.133832)
(0.563518 0.0330985 -0.189446)
(0.774186 0.120567 -0.413184)
(0.715064 0.0913465 -0.50167)
(0.122142 0.0554907 -0.103176)
(0.158727 0.0523997 -0.0950982)
(0.192686 0.0360687 -0.0765547)
(0.179285 0.0110147 -0.034146)
(0.2637 -0.018447 -0.00390999)
(0.349892 -0.0134303 -0.0384869)
(0.407488 -0.00921175 -0.0748549)
(0.47836 -0.0110789 -0.112811)
(0.5658 0.0172596 -0.175753)
(0.597591 0.0947726 -0.296067)
(0.615165 0.0710097 -0.4901)
(0.117983 0.066426 -0.104249)
(0.152787 0.0760958 -0.093232)
(0.192816 0.0990951 -0.0793914)
(0.157924 0.045167 -0.0197777)
(0.133229 -0.0189778 0.0226371)
(0.231797 -0.0213839 0.00040434)
(0.2176 -0.0228977 -0.0215206)
(0.250085 -0.0295987 -0.0352005)
(0.310677 -0.0338244 -0.052053)
(0.309676 0.273699 -0.334726)
(0.294215 0.0895902 -0.410206)
(0.132866 0.0646646 -0.111594)
(0.139246 0.0445318 -0.0433799)
(0.162125 0.0756181 -0.0323427)
(0.148102 0.097771 -0.0121057)
(0.0857222 0.0457964 0.0282422)
(0.0931145 0.0864065 -0.367212)
(0.223246 0.0469579 -0.453746)
(0.109275 0.0468024 -0.0628521)
(0.16648 0.0268419 -0.0529924)
(0.215566 0.101287 -0.0336177)
(0.127883 0.165684 -0.00595924)
(0.0645783 0.097272 0.0330446)
(0.0665982 0.0311205 -0.386299)
(0.191775 0.0217919 -0.479281)
(0.0924553 0.050373 -0.0746391)
(0.0722662 0.00480009 -0.0486846)
(0.0362909 0.222991 0.00177058)
(0.037713 0.133641 0.0346079)
(0.0617022 0.0274113 -0.404548)
(0.176961 0.00922867 -0.493774)
(0.0807842 0.134206 -0.0727763)
(-0.0222437 0.114502 -0.0122245)
(0.0261813 0.207964 0.000839947)
(0.0348611 0.133768 0.0294047)
(0.0554495 -0.0013868 -0.416256)
(0.17172 0.00185406 -0.501805)
(0.0780184 0.229985 -0.0804845)
(-0.000199165 0.186221 -0.0433519)
(0.0395644 0.225221 -0.014547)
(0.0397073 0.140399 0.0221203)
(0.0687999 0.00317827 -0.399826)
(0.173367 -0.00399205 -0.503133)
(0.0785274 0.329301 -0.0883637)
(0.00175078 0.265355 -0.0514051)
(0.051262 0.248083 -0.0448518)
(0.0422625 0.159123 0.0007402)
(0.094929 -0.00851617 -0.452536)
(0.1811 -0.0101332 -0.49956)
(0.114348 0.357749 -0.10041)
(0.217547 0.302965 -0.10152)
(0.0874597 0.12142 -0.0643546)
(0.0379621 0.272518 -0.0761087)
(0.0452211 0.182196 -0.0193113)
(0.1055 -0.0280725 -0.486755)
(0.197433 -0.0229525 -0.48864)
(0.101909 0.380625 -0.242536)
(0.0921333 0.285119 -0.128714)
(0.0853301 0.254994 -0.121778)
(0.0750995 0.276337 -0.111273)
(0.0734399 0.20809 -0.0377389)
(0.200091 0.0792876 -0.0203278)
(0.159262 0.108037 -0.0388485)
(0.184663 0.105151 -0.0389334)
(0.246688 0.091202 -0.0343142)
(0.253001 -0.0887224 -0.47538)
(0.230916 -0.0254701 -0.459911)
(0.13614 0.351046 -0.267704)
(0.141587 0.358128 -0.279953)
(0.0845997 0.374745 -0.274625)
(0.0685736 0.304309 -0.152997)
(0.146088 0.303084 -0.128372)
(0.192967 0.199025 -0.0932063)
(0.195084 0.196188 -0.13632)
(0.221689 0.182876 -0.142525)
(0.294526 0.137867 -0.155592)
(0.386855 0.00665578 -0.434892)
(0.402565 0.0126606 -0.59484)
(0.107717 0.40217 -0.303947)
(0.116493 0.382829 -0.306841)
(0.135879 0.388302 -0.297915)
(0.163256 0.430214 -0.315965)
(0.155635 0.306999 -0.197532)
(0.213276 0.271891 -0.244752)
(0.226456 0.247447 -0.278714)
(0.254327 0.215874 -0.297594)
(0.309031 0.154427 -0.320598)
(0.383351 0.0853389 -0.560213)
(0.386438 0.032465 -0.565441)
(0.111042 0.442583 -0.348671)
(0.124051 0.442236 -0.355871)
(0.139161 0.439997 -0.356056)
(0.16923 0.421737 -0.39186)
(0.201332 0.412693 -0.398539)
(0.218693 0.367103 -0.432954)
(0.241644 0.31942 -0.462606)
(0.262266 0.26368 -0.487374)
(0.319392 0.189607 -0.520723)
(0.324859 0.119945 -0.542914)
(0.324321 0.0358022 -0.584379)
(0.106434 0.473623 -0.411028)
(0.118239 0.467103 -0.416961)
(0.13317 0.456666 -0.423779)
(0.153475 0.436646 -0.439604)
(0.168863 0.400733 -0.481836)
(0.179316 0.366178 -0.500665)
(0.189931 0.325078 -0.521144)
(0.201886 0.274881 -0.538317)
(0.218901 0.218388 -0.558915)
(0.226667 0.12089 -0.582581)
(0.247037 0.0465456 -0.608323)
(0.102705 0.530233 -0.474508)
(0.107708 0.525235 -0.480118)
(0.113502 0.511052 -0.484785)
(0.120976 0.48597 -0.495033)
(0.12602 0.448793 -0.508321)
(0.129063 0.406732 -0.522375)
(0.133241 0.35798 -0.537709)
(0.1381 0.301707 -0.554287)
(0.147808 0.23557 -0.57495)
(0.153521 0.150524 -0.603747)
(0.169061 0.0670937 -0.635484)
(0.116964 0.0755343 -0.108992)
(0.157372 0.0732216 -0.100985)
(0.19645 0.0702463 -0.0929627)
(0.247791 0.0657342 -0.0853134)
(0.319162 0.0525355 -0.0866629)
(0.393834 0.0472187 -0.108035)
(0.468377 0.0424344 -0.144368)
(0.534867 0.037713 -0.194744)
(0.619335 0.0315176 -0.256567)
(0.647984 0.0478386 -0.340044)
(0.715906 0.0482006 -0.376961)
(0.123887 0.1057 -0.127131)
(0.171434 0.103054 -0.116909)
(0.217334 0.100322 -0.107848)
(0.269224 0.0687735 -0.083215)
(0.352253 0.066801 -0.0796056)
(0.435919 0.0656421 -0.112915)
(0.515294 0.0648885 -0.15988)
(0.588109 0.0633429 -0.22106)
(0.692182 0.0749493 -0.31358)
(0.714334 0.0826131 -0.425017)
(0.696204 0.10292 -0.473127)
(0.123518 0.0537853 -0.133821)
(0.174044 0.0518562 -0.122482)
(0.19483 0.0407638 -0.104379)
(0.259462 0.0365658 -0.0907612)
(0.245257 -0.0068493 -0.0625789)
(0.314646 -0.0147015 -0.0780161)
(0.369661 -0.0149612 -0.111802)
(0.431037 -0.018487 -0.155603)
(0.497559 -0.00291506 -0.217893)
(0.545742 0.0385693 -0.297679)
(0.631513 0.0409609 -0.518383)
(0.122689 0.05923 -0.137389)
(0.162316 0.0728582 -0.123868)
(0.206728 0.0913372 -0.10189)
(0.181609 0.0557012 -0.0454899)
(0.212226 0.0285524 -0.0141422)
(0.235431 -0.0100168 -0.0231946)
(0.270892 -0.00707239 -0.0470625)
(0.317498 -0.013024 -0.0710212)
(0.385037 -0.00392436 -0.11704)
(0.553378 0.0795555 -0.359185)
(0.574798 -0.00116315 -0.555234)
(0.135824 0.0504512 -0.148198)
(0.148579 0.0389161 -0.0649628)
(0.177621 0.0741778 -0.051257)
(0.17582 0.0961523 -0.0409296)
(0.188374 0.0793772 0.00768706)
(0.226655 0.0314348 0.00852975)
(0.252923 0.023425 -0.025019)
(0.305055 0.0137431 -0.0385633)
(0.399328 0.0166076 -0.0766575)
(0.504773 0.0386826 -0.465772)
(0.5243 0.019515 -0.588312)
(0.110962 0.0347204 -0.0882275)
(0.17735 0.0168946 -0.0725257)
(0.23173 0.0984288 -0.0509369)
(0.159275 0.159044 -0.0301147)
(0.165927 0.129907 0.00951613)
(0.212963 0.0537902 0.00841499)
(0.243249 0.0446393 -0.0250615)
(0.300043 0.0350434 -0.0379016)
(0.407425 0.0283669 -0.0801687)
(0.505464 0.0193972 -0.477449)
(0.502257 0.00764496 -0.602139)
(0.092378 0.0313073 -0.103847)
(0.0719037 -0.0126782 -0.0614201)
(0.0671983 0.205329 -0.0330327)
(0.128561 0.155442 -0.00893028)
(0.196461 0.0668782 -0.0150516)
(0.233426 0.0591073 -0.0356558)
(0.291718 0.0482831 -0.0499773)
(0.393125 0.0379275 -0.0936259)
(0.513525 0.0107944 -0.471305)
(0.491544 0.00587066 -0.606289)
(0.0806556 0.115533 -0.0974255)
(-0.0334816 0.0934629 -0.0311598)
(0.0575193 0.185931 -0.0429175)
(0.11418 0.159209 -0.0354199)
(0.184941 0.075999 -0.0203701)
(0.227413 0.0635649 -0.0361315)
(0.287953 0.049188 -0.0510219)
(0.387549 0.0311302 -0.0958513)
(0.513058 0.00711835 -0.453667)
(0.485145 0.00364202 -0.606266)
(0.0782471 0.211861 -0.101194)
(0.000719845 0.171895 -0.0615056)
(0.0648712 0.195396 -0.0643821)
(0.121489 0.172846 -0.0690329)
(0.160176 0.0861951 -0.0258575)
(0.218929 0.073434 -0.0374127)
(0.278575 0.056856 -0.053415)
(0.374998 0.0345621 -0.1002)
(0.496482 0.0065526 -0.45747)
(0.480593 0.00385029 -0.603208)
(0.0790017 0.309305 -0.109496)
(0.0047356 0.250578 -0.0682505)
(0.073751 0.210717 -0.087957)
(0.10879 0.191742 -0.0793182)
(0.159861 0.108315 -0.0386195)
(0.20941 0.0908649 -0.049652)
(0.264584 0.0726788 -0.0659202)
(0.35566 0.0421849 -0.112459)
(0.486929 0.00784984 -0.441645)
(0.479352 0.00489558 -0.595337)
(0.1149 0.333976 -0.124507)
(0.220978 0.281405 -0.125423)
(0.108644 0.102553 -0.0856383)
(0.0688215 0.23125 -0.113753)
(0.114186 0.212224 -0.104783)
(0.212973 0.183996 -0.103887)
(0.261287 0.159319 -0.124285)
(0.332448 0.13147 -0.149149)
(0.425788 0.078231 -0.215656)
(0.492694 0.0320434 -0.398616)
(0.471701 0.00715353 -0.58368)
(0.103886 0.34255 -0.28925)
(0.104013 0.252627 -0.16049)
(0.104422 0.211547 -0.149382)
(0.0867663 0.308803 -0.239326)
(0.101461 0.237542 -0.135452)
(0.189027 0.214307 -0.14464)
(0.240901 0.198365 -0.162915)
(0.300944 0.171861 -0.186886)
(0.376684 0.122983 -0.242993)
(0.429017 0.0475803 -0.367266)
(0.453067 0.0250434 -0.574231)
(0.132618 0.309992 -0.316466)
(0.141732 0.309541 -0.329892)
(0.0698096 0.317763 -0.331007)
(0.102637 0.349443 -0.311499)
(0.143137 0.26485 -0.188508)
(0.186823 0.260524 -0.211513)
(0.219383 0.247875 -0.233191)
(0.262523 0.22099 -0.253816)
(0.32759 0.164955 -0.286559)
(0.428534 0.0945152 -0.544665)
(0.413818 0.032082 -0.562184)
(0.107201 0.349571 -0.355352)
(0.117044 0.33139 -0.358777)
(0.126516 0.333167 -0.355374)
(0.153159 0.369703 -0.356642)
(0.192217 0.358029 -0.368951)
(0.221857 0.333384 -0.392167)
(0.258264 0.299085 -0.419191)
(0.290901 0.250319 -0.449324)
(0.358008 0.178216 -0.497429)
(0.364483 0.10667 -0.538991)
(0.35743 0.0317279 -0.583725)
(0.109168 0.378504 -0.398278)
(0.119862 0.378152 -0.403461)
(0.128606 0.375374 -0.405338)
(0.147212 0.368072 -0.412542)
(0.17357 0.352708 -0.431538)
(0.198342 0.329511 -0.448095)
(0.220366 0.29809 -0.467877)
(0.242999 0.254557 -0.490124)
(0.267365 0.203226 -0.51283)
(0.280342 0.108756 -0.56882)
(0.294787 0.0406601 -0.599267)
(0.105061 0.403045 -0.452458)
(0.114419 0.39805 -0.457361)
(0.125026 0.390065 -0.461054)
(0.141019 0.376834 -0.469639)
(0.153886 0.355161 -0.484245)
(0.162991 0.323686 -0.501545)
(0.174797 0.28503 -0.520789)
(0.186634 0.236987 -0.541444)
(0.20283 0.179649 -0.565162)
(0.211688 0.111295 -0.596331)
(0.223295 0.0417581 -0.624274)
(0.102112 0.441274 -0.510396)
(0.105943 0.43764 -0.515753)
(0.110033 0.426442 -0.519329)
(0.115125 0.407799 -0.525852)
(0.119936 0.378469 -0.536171)
(0.12418 0.344901 -0.547449)
(0.128613 0.304157 -0.560797)
(0.133225 0.255408 -0.576484)
(0.139302 0.198122 -0.595513)
(0.143207 0.124985 -0.622798)
(0.151017 0.0509714 -0.651111)
(0.116296 0.0761522 -0.140327)
(0.154488 0.0743112 -0.132827)
(0.192884 0.0727603 -0.126459)
(0.23596 0.0701126 -0.120692)
(0.291707 0.0664316 -0.124581)
(0.35377 0.06616 -0.14281)
(0.416152 0.0649026 -0.172737)
(0.475332 0.0634596 -0.215643)
(0.547261 0.0650148 -0.267368)
(0.577659 0.0579052 -0.335034)
(0.669219 0.0459301 -0.391453)
(0.123871 0.10682 -0.159757)
(0.170521 0.106358 -0.150884)
(0.215449 0.105526 -0.143849)
(0.262726 0.0998 -0.136997)
(0.327248 0.0835377 -0.137567)
(0.395203 0.075585 -0.15912)
(0.462054 0.0666811 -0.195371)
(0.528391 0.056686 -0.247017)
(0.595383 0.0524013 -0.307625)
(0.618633 0.0409655 -0.407575)
(0.644602 0.0587011 -0.487059)
(0.125768 0.0545321 -0.167918)
(0.175349 0.0546779 -0.15455)
(0.217132 0.0564818 -0.144912)
(0.249694 0.0522426 -0.118611)
(0.312904 0.0435464 -0.127515)
(0.385059 0.0360404 -0.156906)
(0.452198 0.0265406 -0.19691)
(0.523655 0.0201771 -0.247835)
(0.594108 0.0322315 -0.323433)
(0.65676 0.0454361 -0.418763)
(0.658704 0.0260897 -0.529074)
(0.125122 0.0543334 -0.172746)
(0.176899 0.0693175 -0.156365)
(0.217753 0.0934751 -0.133801)
(0.246615 0.0955662 -0.114257)
(0.223717 0.0468985 -0.0788187)
(0.277985 0.0398323 -0.0878714)
(0.327162 0.0332805 -0.111711)
(0.386229 0.0291649 -0.144038)
(0.467443 0.0361782 -0.191757)
(0.629037 0.089715 -0.424391)
(0.59359 0.0298293 -0.520236)
(0.137635 0.0361303 -0.18648)
(0.157356 0.0338241 -0.0891648)
(0.191372 0.064053 -0.0759245)
(0.225424 0.173049 -0.130355)
(0.21602 0.0872698 -0.0751541)
(0.263596 0.0665589 -0.0876942)
(0.311899 0.05078 -0.111161)
(0.376585 0.0396946 -0.142514)
(0.468689 0.0353948 -0.192764)
(0.610294 0.03662 -0.467157)
(0.573616 0.0199878 -0.535841)
(0.111805 0.0235741 -0.113801)
(0.184097 0.0079676 -0.0940658)
(0.240726 0.0960766 -0.0748247)
(0.168556 0.156254 -0.0717148)
(0.198691 0.13549 -0.0724761)
(0.247278 0.0949933 -0.0901774)
(0.299107 0.0686863 -0.114058)
(0.369484 0.0516594 -0.145722)
(0.465948 0.0384656 -0.198716)
(0.598068 0.0348957 -0.478978)
(0.553022 0.0139572 -0.540695)
(0.0918132 0.0117212 -0.131112)
(0.0705294 -0.0280591 -0.0736354)
(0.0851579 0.190091 -0.0740289)
(0.172109 0.192058 -0.14704)
(0.20522 0.109202 -0.0967621)
(0.283357 0.0798664 -0.119734)
(0.35924 0.0602553 -0.151439)
(0.455022 0.0408397 -0.205354)
(0.585192 0.0252819 -0.483921)
(0.539147 0.0103413 -0.544636)
(0.0822419 0.0945709 -0.123358)
(-0.0192824 0.0712783 -0.0710235)
(0.0718959 0.162785 -0.0874927)
(0.156719 0.192341 -0.171221)
(0.205819 0.119073 -0.107539)
(0.272575 0.0916994 -0.127579)
(0.346808 0.06991 -0.157444)
(0.440049 0.0450387 -0.209534)
(0.570445 0.025127 -0.485246)
(0.528842 0.00874751 -0.545693)
(0.0787018 0.190695 -0.121401)
(0.000945395 0.155319 -0.0796924)
(0.0742975 0.164288 -0.105802)
(0.154635 0.228195 -0.197203)
(0.196858 0.138248 -0.116513)
(0.25746 0.11204 -0.130905)
(0.327995 0.0856281 -0.157899)
(0.419497 0.052542 -0.206767)
(0.555738 0.00263722 -0.486843)
(0.51575 0.00871432 -0.546006)
(0.0794733 0.285854 -0.12937)
(0.00743239 0.233148 -0.0842282)
(0.0892006 0.170879 -0.125951)
(0.178339 0.231469 -0.211663)
(0.273127 0.198249 -0.207254)
(0.332856 0.161686 -0.227829)
(0.415924 0.117996 -0.268111)
(0.476566 0.0599771 -0.341288)
(0.543328 0.0153532 -0.482617)
(0.52143 0.0110185 -0.541286)
(0.115089 0.307252 -0.147215)
(0.222761 0.257852 -0.147913)
(0.128682 0.0832319 -0.106679)
(0.0919237 0.183861 -0.147006)
(0.148085 0.240483 -0.247088)
(0.241558 0.207119 -0.244461)
(0.308102 0.179518 -0.264254)
(0.38264 0.14655 -0.302856)
(0.446105 0.101197 -0.37688)
(0.512331 0.057479 -0.482917)
(0.497015 0.0149528 -0.542647)
(0.106398 0.303834 -0.330734)
(0.116741 0.22131 -0.189782)
(0.119 0.174666 -0.186532)
(0.0961686 0.25463 -0.302159)
(0.137041 0.257207 -0.287702)
(0.225056 0.237491 -0.285908)
(0.280137 0.213137 -0.306816)
(0.342697 0.182426 -0.34235)
(0.396834 0.130895 -0.406896)
(0.465526 0.111361 -0.491497)
(0.467215 0.0207024 -0.546904)
(0.132848 0.269304 -0.358061)
(0.142306 0.26205 -0.370304)
(0.0984577 0.259064 -0.372325)
(0.0887195 0.268948 -0.335648)
(0.143829 0.301638 -0.342041)
(0.208576 0.286467 -0.350055)
(0.25699 0.267515 -0.369744)
(0.302087 0.23588 -0.399426)
(0.381246 0.18724 -0.451894)
(0.400117 0.127224 -0.510138)
(0.391783 0.0298937 -0.572967)
(0.107962 0.297965 -0.397948)
(0.117791 0.277844 -0.40143)
(0.124711 0.278504 -0.399074)
(0.136518 0.294291 -0.39603)
(0.164244 0.306481 -0.40238)
(0.198207 0.292858 -0.41269)
(0.228813 0.271611 -0.429931)
(0.260447 0.235844 -0.454544)
(0.294418 0.191434 -0.481618)
(0.317651 0.102317 -0.549022)
(0.332705 0.0351061 -0.588734)
(0.108044 0.319435 -0.438804)
(0.116843 0.317768 -0.443716)
(0.121507 0.314161 -0.444716)
(0.133712 0.308063 -0.448008)
(0.154082 0.299847 -0.45505)
(0.175948 0.278596 -0.470394)
(0.197628 0.250568 -0.489703)
(0.218923 0.211781 -0.513523)
(0.246365 0.163299 -0.541611)
(0.261849 0.101915 -0.576597)
(0.272231 0.036073 -0.611364)
(0.10403 0.339203 -0.486759)
(0.111047 0.334924 -0.491479)
(0.118251 0.328631 -0.494357)
(0.127917 0.319807 -0.500183)
(0.13947 0.304914 -0.511867)
(0.151259 0.281474 -0.524116)
(0.163312 0.250981 -0.539271)
(0.175212 0.211255 -0.55723)
(0.188877 0.16373 -0.578269)
(0.197383 0.100063 -0.607185)
(0.207316 0.0377009 -0.635043)
(0.101651 0.369096 -0.538485)
(0.10452 0.366437 -0.543812)
(0.107319 0.358093 -0.546676)
(0.110951 0.344706 -0.551507)
(0.115132 0.324806 -0.558725)
(0.119334 0.297818 -0.568168)
(0.1237 0.263828 -0.579986)
(0.128122 0.221546 -0.594478)
(0.133524 0.171306 -0.612117)