/*--------------------------------*- C++ -*----------------------------------*\
| =========                 |                                                 |
| \\      /  F ield         | OpenFOAM: The Open Source CFD Toolbox           |
|  \\    /   O peration     | Version:  v1906                                 |
|   \\  /    A nd           | Web:      www.OpenFOAM.com                      |
|    \\/     M anipulation  |                                                 |
\*---------------------------------------------------------------------------*/
FoamFile
{
    version     2.0;
    format      ascii;
    class       surfaceScalarField;
    location    "50";
    object      phi;
}
// * * * * * * * * * * * * * * * * * * * * * * * * * * * * * * * * * * * * * //

dimensions      [1 0 -1 0 0 0 0];
oriented        oriented;


internalField   nonuniform List<scalar> 
104699
(
0.0175993
0.008118
-0.00876548
0.026427
0.0073366
-0.00765501
0.0380645
0.00332144
-0.00646461
0.0116325
0.000249474
-0.00279804
0.0123098
0.0116574
0.0123423
0.0003687
0.000306902
0.000462502
0.0129723
0.00104013
-0.000267412
0.0169713
0.0012272
-0.000991826
-0.0150967
-0.0187665
0.0205761
0.0013255
-0.00102008
-0.022591
0.0246914
0.00142431
-0.001401
-0.0270532
0.0297401
0.00149743
-0.00205621
0.159941
0.0032795
-0.0378242
0.00565413
0.00287843
0.00439825
-0.0326328
-0.0331519
-0.031884
-0.0322276
0.0226632
-0.0355124
0.0168342
0.00947413
-0.00975304
0.0252125
0.00819105
-0.00923282
0.00781576
0.00404163
-0.00616718
0.00754418
0.00780059
0.00749891
0.00898263
-0.000284698
-0.000632727
0.0140829
-0.00253598
-0.000608262
0.000349746
-0.0112884
0.0185778
-0.000909241
-0.016643
-3.52908e-05
-0.00023016
-0.000234609
-4.22255e-05
-0.000483292
-0.0202646
0.0220492
-0.00123419
0.000156628
-3.42271e-05
-2.31154e-05
0.000151116
-0.000800796
-0.0240335
0.0261052
-0.00167143
0.000263671
3.05577e-05
3.87858e-05
0.000261404
-0.000994729
-0.0284459
0.0302653
-0.0022632
0.000706528
0.000284174
0.000282545
0.000694859
-0.00152424
-0.0314892
0.0301644
-0.00262162
0.00180705
0.00173697
0.00183619
0.00184576
0.00637767
-0.042142
-0.0314468
-0.0285201
-0.0305864
-0.0277537
0.00560191
0.00541015
0.00505103
0.0162901
0.0119745
-0.0103518
0.0230935
0.0112129
-0.00982523
0.00660378
0.0101294
-0.00894927
0.00633474
0.00666885
0.00634754
0.00678998
0.000201179
-0.000617935
0.000230549
0.000735309
-0.00166856
0.00162047
-0.000713094
2.58758e-05
0.000125371
-0.000592269
0.000653753
-0.000185372
-1.48346e-06
1.91394e-05
-0.000673826
0.000676363
-9.48754e-06
-1.21901e-05
1.66598e-05
-0.000793842
0.000801864
-8.53125e-06
-1.61518e-05
-1.59952e-05
-0.00098452
0.00101169
9.6419e-06
-2.08133e-05
-0.000930576
-0.0028558
0.0039323
0.00335688
-0.000724712
-0.000912667
-0.000943483
-0.000921937
-0.0199793
0.0268774
0.00549801
-0.00601844
0.0126508
0.0175708
-0.0098114
0.019353
0.00367145
-0.00977323
0.00350281
0.00360128
0.00350829
0.00563141
0.00387094
-0.00828915
0.00533654
0.00569193
0.0053892
0.00393393
0.00389417
0.0040233
-0.00116255
0.00502886
0.00232405
-0.000558979
0.000107781
-0.00100256
0.000854987
6.62162e-05
-2.6433e-05
-0.00212946
-0.000332562
0.00181076
0.00172902
-0.000257391
-0.000324179
-0.000259879
-0.000236312
-0.0161894
-0.00451897
0.0242007
0.00324954
-0.00674186
0.00341134
0.00520649
-0.00925532
0.00355434
0.00346393
0.00368464
0.00546079
0.00512759
0.00534135
0.00380152
0.0040664
-0.00078516
-0.00432784
0.00477951
0.00403436
-0.000615124
-0.00367461
-0.00455062
0.00363014
0.0050307
-0.000435661
-0.000649327
-0.000552161
0.000417022
0.000807523
-2.30693e-05
-0.00104578
-0.000326541
0.00159435
0.000892237
-0.000317947
-0.000324739
-0.000237387
-0.00023419
-0.0152199
-0.00235464
0.0231796
0.00160491
-0.00720998
0.00248097
0.00549068
-0.000658836
0.00386347
-0.000645879
-0.00438218
-0.00293561
0.00105396
0.00099508
0.00098663
0.00106448
-0.00517164
0.00559997
-0.000523666
0.000915262
0.000922252
0.0013582
0.00131661
-0.00441703
-0.00445254
-0.00645975
0.00298582
0.00827902
-0.000352594
-0.00127392
-0.000391313
0.000278097
0.00140649
-1.93667e-05
-0.000559254
-0.000313794
0.00155254
0.000477898
-0.000386393
-0.000312846
-0.000229899
-0.000228255
-0.0148748
-0.00111969
0.0227031
0.000751068
-0.00745964
0.001786
0.00719987
-0.000680047
-0.00618795
-0.00116514
-0.000243242
6.92752e-05
0.00141204
-7.29406e-05
-0.000749964
-0.00986691
0.00201932
0.0104302
-8.04459e-05
-0.000565477
-0.000695901
-0.000490877
-0.00180128
-0.000170632
0.000132401
0.00184595
-6.457e-06
-0.000293864
-0.000304829
0.00154327
0.00024718
-0.00043651
-0.000304239
-0.000226116
-0.000224893
-0.0147329
-0.000507587
0.0224984
0.000327662
-0.00758556
-0.00857856
0.00139247
0.0101021
-0.000791793
-0.00191007
-6.76008e-05
9.69987e-06
0.00202689
-5.89202e-05
-0.00141637
-0.0106919
0.00360897
0.0111957
4.26439e-05
-0.00136233
-0.000740885
-0.000635852
-0.0020527
-0.000258536
0.000192531
0.00209218
2.65177e-05
-0.00014048
-0.000298976
0.00154461
0.000112492
-0.000470092
-0.000298641
-0.000224855
-0.000224056
-0.0146896
-0.000202689
0.0224269
0.000110283
-0.00764488
-0.0116618
0.00146557
0.0131928
-0.000848196
-0.00241673
-0.000104258
5.29061e-05
0.00252752
-5.94432e-05
-0.00120804
-0.0119577
0.00291961
0.0131509
-0.000447367
-0.00107302
-0.000741009
-0.000643417
-0.00237552
-0.000131367
0.000104275
0.00241381
-1.1201e-05
-4.59299e-05
-0.000295458
0.00155349
2.67806e-05
-0.000493752
-0.000294922
-0.000225334
-0.000224874
-0.0147101
-4.63761e-05
0.0224245
4.95125e-06
-0.00767294
-0.0146757
0.00199254
0.0157822
-0.00091186
-0.0030332
-0.000240872
0.000163267
0.00319371
-8.2902e-05
-0.000452239
-0.0146545
0.000527029
0.0158714
-0.00112238
2.23292e-05
-0.000308474
0.000116874
-0.00267498
5.14264e-05
-1.91214e-05
0.0027027
-6.003e-05
2.8383e-05
-0.000293967
0.00155048
-4.70073e-05
-0.000494706
-0.000294309
-0.000224639
-0.000224239
-0.0146924
3.49826e-05
0.0224215
-9.5761e-05
-0.00766827
-0.016335
0.00321234
0.0162257
-0.000964098
-0.00307103
0.0141301
-0.00099645
-0.00332273
-0.00307567
-0.00332674
0.00115498
0.00102647
0.00105628
0.00112512
-0.0047003
-0.00155356
-7.3278e-05
-0.000281873
0.00202046
-0.000111768
0.00209319
-0.0163857
-0.00125996
0.0166255
-0.00107304
-0.00291135
0.000153777
-0.000100995
0.00293496
-7.63921e-05
0.000110266
-0.000296385
0.00154125
-0.000134157
-0.000478415
-0.00029673
-0.000222928
-0.000222896
-0.0146913
0.000179975
0.0224511
-0.000292189
-0.00764759
0.00137861
0.0832799
-0.0155024
-0.0169269
-0.0170786
-0.0166029
-0.0167356
0.00252812
0.0014086
0.00261002
-0.0153177
0.00146107
0.0165445
-0.00130923
-0.0146827
-0.00103528
1.8226e-05
0.0170035
-0.00130375
-0.017064
9.65554e-06
0.0179004
-0.00122003
0.000373988
-0.00308016
4.81559e-05
-3.30272e-05
0.00315148
-8.64569e-05
0.000226541
-0.000300973
0.00154291
-0.000262022
-0.000458278
-0.000301348
-0.000223186
-0.000223639
-0.0147604
0.000439216
0.0225644
-0.00063969
-0.00760358
0.014189
0.0941967
-0.0167827
0.00900334
0.0946335
-0.0174286
-0.0181447
-0.0183037
-0.0177088
-0.0178621
0.000302578
0.0990098
-0.0173608
0.00219153
0.000383545
0.00226335
-0.0195464
-0.0197544
-0.0191433
-0.0193427
-0.0186012
0.000835328
0.0194153
-0.00134686
-0.00342547
-0.000193562
0.000159508
0.00354621
-8.66985e-05
0.000416979
-0.000305337
0.00157777
-0.000488207
-0.000448358
-0.000303847
-0.000225095
-0.000223909
-0.0149552
0.000882245
0.0228004
-0.00120416
-0.00752328
0.0101442
0.112582
-0.0202135
0.0112429
0.11411
-0.0205748
0.00277405
0.114808
-0.0198196
0.00471517
0.0028401
0.00493473
-0.0204669
0.00345117
0.0212993
-0.00150955
-0.00393912
-0.000852485
0.000774236
-7.08599e-05
0.00408823
0.000866932
-0.000333711
0.00188685
-0.00101576
-0.000488668
-0.000348257
-0.000291907
-0.000275491
-0.0152084
0.00145826
0.0230091
-0.00190215
-0.00735675
0.0131753
0.129535
-0.0218058
0.0198611
0.129787
-0.0223634
0.00644671
0.128208
-0.021642
0.00792829
0.0059536
0.0077749
-0.0213462
0.00724421
0.0223707
-0.00182202
-0.00411689
0.0187315
-0.00309604
-0.00395753
-0.00406895
-0.00385698
0.00225092
0.00220038
0.00236706
0.00232421
-0.00877769
-0.000452666
-0.00278615
0.00263419
-0.000524284
0.00239486
-0.000406199
-0.000446292
-0.000413472
-0.000283389
-0.00212103
0.00206526
-0.00061345
0.00180763
-0.000285008
-0.000285817
-0.000284204
-0.000238425
-0.00202765
0.00209844
-0.00062589
0.00151141
-0.000237829
-0.000240269
-0.000239793
-0.000158079
-0.00240014
0.00263282
-0.000645943
0.00102656
-0.000141136
-0.000162765
-0.000151329
0.000436758
-0.00328409
0.0146732
0.00308354
-0.00653311
0.000346221
0.00045325
0.000406973
-0.00315505
-0.0032732
-0.00315455
0.0075815
-0.0598443
-0.0189188
-0.0194277
-0.0180579
-0.0182876
0.00164316
0.00135911
0.000451116
0.000743394
0.0125116
0.158349
-0.0329921
0.0193622
0.15726
-0.0343236
0.0262415
0.154341
-0.0330125
0.00508761
0.140614
-0.040951
-0.0247552
-0.0243194
-0.024196
-0.0234701
0.00690468
0.00466592
0.00666147
-0.0207111
0.00621969
0.0225902
-0.00301118
-0.0163657
-0.00740599
0.00747743
0.0197898
-0.00349548
-0.0141122
-0.00767526
0.00774066
0.0180966
-0.00404977
-0.0123277
-0.00809433
0.0087494
0.0161665
-0.00449389
-0.00986679
-0.00967559
0.0117878
0.0131229
-0.00536826
0.0729382
0.0612037
-0.0652309
-0.00711804
-0.00550102
-0.00643427
-0.00506071
-0.0131546
-0.00979401
-0.0123997
-0.00944863
0.0451977
-0.0654734
0.0110353
-0.0363276
0.0142284
-0.0371804
0.0202157
-0.0384583
0.02539
-0.0399898
0.021417
-0.0492435
-0.0268081
-0.0258955
-0.0264216
-0.0253263
0.0182927
-0.0505546
-0.0249807
-0.0244376
-0.0245062
-0.0237295
0.0196284
-0.0535568
-0.0233434
-0.0228706
-0.0227726
-0.0220383
0.0241736
-0.0555349
-0.0212754
-0.0206751
-0.020748
-0.0198209
0.0303306
-0.0577956
-0.0179761
-0.01732
-0.0175587
-0.0165081
0.0595059
-0.0639118
-0.064669
0.0169131
0.00838055
-0.0171111
0.0262541
0.00736584
-0.015856
0.0364516
0.0052143
-0.0133834
0.0539065
-0.00115363
-0.0106316
0.0161994
-0.000881084
-0.00812536
0.000575063
2.65197e-06
-7.05539e-06
0.000554022
0.00157358
0.000791201
0.00194506
0.0167955
0.0161769
0.016751
0.00201923
0.0166346
0.00158282
-0.00192598
0.0021012
-0.0179594
0.0193694
0.00133835
-0.00273355
0.00283382
-0.0211977
0.0228282
0.00139546
-0.00373557
0.00417084
-0.0247964
0.027139
0.0015902
-0.00597619
0.136826
0.00272409
-0.0606531
0.00428237
0.00209833
0.00345335
-0.0297205
-0.029947
-0.0291521
-0.0293056
0.0193977
-0.0562963
0.0168802
0.00890534
-0.01872
0.0249378
0.00781796
-0.0177426
0.0355993
0.00345665
-0.0150711
0.0115825
-0.000418291
-0.0135496
0.0110653
0.0115739
0.0103771
-0.000554567
-0.000285894
-0.000698056
0.00127766
0.0016369
0.000984693
0.00145398
0.00124697
0.0133765
-0.00220854
-0.00171354
0.00172372
0.0176017
-0.00219297
-0.0157659
-0.000222669
-1.64747e-05
-3.06519e-05
-0.000230704
-0.000866079
0.00230403
-0.0192055
0.0207735
-0.00318872
-7.36417e-05
0.000111882
7.32924e-05
-0.000109102
-0.000685718
0.0031391
-0.0225574
0.024315
-0.00437509
-1.39015e-05
0.000218773
0.000161192
-6.80797e-05
-0.000819618
0.00432675
-0.0262612
0.0277454
-0.00600283
0.000283525
0.000673376
0.000600172
0.000197564
-0.00156272
-0.0284677
0.00557731
0.0269201
0.00639011
-0.0076957
0.00572292
-0.0669104
-0.026793
-0.0242288
-0.0262876
-0.0240207
0.00501384
0.00418796
0.00404746
0.015794
0.0106013
-0.0194029
0.0225589
0.00995639
-0.0187286
0.00636987
0.00856895
-0.0170769
0.00619691
0.00681671
0.0061907
0.00112972
0.0067636
-9.60958e-05
-0.00184564
0.000102793
0.000538002
-0.00173286
0.0017861
-0.000575887
-0.000118161
-2.71249e-05
0.000368038
-0.00303731
0.0033153
-0.000114092
-0.000117774
-0.000117999
-0.000131352
-0.00010682
5.76918e-06
-3.61564e-05
-4.81223e-07
6.02537e-05
-0.00356529
0.000128476
0.0036807
-0.000424906
-1.73328e-05
-3.48519e-05
-1.81949e-05
-3.54547e-05
8.41018e-05
6.18663e-05
8.06335e-05
8.88114e-05
-0.00416431
0.000121055
0.00434125
-0.000595436
-1.65132e-05
-3.83496e-05
-1.70047e-05
-3.99687e-05
0.000117082
9.08957e-05
0.000112496
0.000151693
-0.0051348
-0.000116468
0.00546799
-0.000905827
2.53944e-05
-1.35115e-05
1.93842e-05
-1.5931e-05
0.000185887
0.000156315
0.00017987
0.00124381
-0.00485868
-0.0023217
0.00434204
0.00294734
-0.00135281
-0.0171545
0.0098451
0.0198816
0.00531478
-0.0121641
0.0128159
0.015375
-0.0189645
0.0192578
0.0032403
-0.0187638
0.00316729
0.00300076
0.00309662
0.00545525
0.00363233
-0.0166416
0.0052059
0.00559626
0.00528792
0.00376743
0.00346396
0.00377001
0.00106547
-0.000947672
0.00485683
0.0021492
-0.00166862
0.000106523
0.000127932
-0.000994108
0.000854399
3.77951e-05
-0.000132557
0.00169756
-0.00015296
-0.00216276
0.00133139
0.00180433
-0.00207646
-0.000126025
-0.000174184
-0.000140873
-0.0117573
0.011072
-0.00447253
0.0156395
0.00329713
-0.0137789
0.00355249
0.00460641
-0.0182816
0.00363302
0.00344763
0.00371881
0.00479562
0.00446651
0.00460614
0.00144346
0.0039283
0.0036396
-0.0022186
0.00114919
-0.00436755
0.00475672
0.00384274
-0.00174881
0.000869286
-0.003546
-0.00445156
0.00350695
0.0049376
-0.00131633
9.11935e-05
-0.000615315
-0.000535317
0.000403095
0.000778126
-0.000121797
0.00186924
-0.000968071
-9.69179e-05
0.000915003
0.000807412
-0.00222732
-9.46242e-05
-0.000103093
-0.000101638
-0.00977367
0.0118789
-0.00242447
0.0135705
0.00168815
-0.0149394
0.00127516
0.00252251
0.00490074
-0.00198546
0.00129222
0.00403984
-0.00197661
-0.00389601
-0.00304609
0.000923421
0.000870056
0.000933488
0.00085964
-0.00535724
0.0010355
0.00562484
-0.00154489
0.000921947
0.000901234
0.00137291
0.00136284
-0.00431718
-0.00433174
0.000742544
-0.00642981
0.00283937
0.00829865
-0.00111905
7.37635e-05
-0.00126008
-0.000358945
0.000247553
0.00139677
-9.9077e-05
0.00201988
-0.000477335
-8.12268e-05
0.000774009
0.000401131
-0.00238061
-7.91434e-05
-8.92182e-05
-8.74865e-05
-0.00884726
0.0123526
-0.00119326
0.0124943
0.000820123
-0.0156264
0.00137655
0.00181262
0.00659819
-0.00210384
-0.00556658
0.000287552
-0.00102165
-0.000283124
0.000139746
0.00124903
-0.000371571
-0.00058644
0.00060428
-0.00999409
0.00120816
0.0111551
-0.00110995
-0.000338732
-0.000586971
-0.000351376
5.56762e-05
-0.00179763
-9.49826e-05
6.93506e-05
0.00184993
-8.23562e-05
0.00211931
-0.000234879
-7.17133e-05
0.000706253
0.000195187
-0.00248349
-7.05655e-05
-8.0523e-05
-7.95843e-05
-0.00837456
0.0126155
-0.000565507
0.0119656
0.000377609
-0.0160186
0.0015325
-0.00801038
0.00131046
0.00954601
-0.00225408
0.000212603
-0.00179994
-5.32581e-05
-1.30153e-06
0.00192574
-0.000283838
-0.000157469
0.000904801
-0.0119695
0.00029728
0.0126632
-0.00147464
-8.92026e-06
-0.000200944
-5.38139e-05
5.64166e-05
-0.0020766
-5.64486e-06
1.19847e-05
0.00211012
-9.62881e-05
0.00217896
-0.000106729
-6.65701e-05
0.00067202
8.40761e-05
-0.00254452
-6.60264e-05
-7.58075e-05
-7.54034e-05
-0.00814903
0.0127515
-0.000242926
0.0117277
0.000140324
-0.0162276
0.00163631
-0.011092
0.00138507
0.0126053
-0.00238274
0.000237417
-0.00234142
-8.77294e-05
4.19824e-05
0.00245667
-0.000306927
-0.000173678
0.00137096
-0.013375
0.000164223
0.0142328
-0.00192867
-5.10134e-05
-0.00019642
-4.31811e-05
0.000128407
-0.00234235
2.87174e-05
-1.29238e-05
0.00236874
-0.000170592
0.00221828
-3.04126e-05
-6.42067e-05
0.000657892
1.56856e-05
-0.00258594
-6.40253e-05
-7.36678e-05
-7.35999e-05
-0.00807859
0.01282
-6.27709e-05
0.0116565
-1.46138e-06
-0.0163336
0.00174612
-0.0140535
0.00193727
0.0150858
-0.00252689
0.000299663
-0.002962
-0.000229766
0.000154581
0.00311107
-0.000373552
-2.96496e-05
0.002011
-0.0151538
-0.000385796
0.0157065
-0.00266235
0.000290032
-7.33023e-05
0.000297322
0.000226055
-0.00259142
7.27028e-05
-4.70793e-05
0.00261633
-0.00027659
0.0022163
2.84424e-05
-6.36186e-05
0.00065716
-4.46688e-05
-0.00258368
-6.36646e-05
-7.30887e-05
-7.31777e-05
-0.00809897
0.0128042
6.86323e-05
0.0116775
-0.000151077
-0.0163002
-0.0155293
0.00184363
0.00315649
0.0153293
-0.00266465
0.00186928
-0.00295791
0.0132557
-0.00266064
-0.00318513
-0.00294368
-0.0031758
0.00114628
0.00104515
0.00112917
0.00105239
-0.00457481
-0.00135813
-0.000156709
0.000538836
-0.000230488
0.00186553
-0.000659058
0.00208454
0.00203371
-0.0158299
-0.00128087
0.0158861
-0.00289359
0.000290523
-0.00280497
0.000151292
-0.000101755
0.00282256
-0.000357647
0.00219636
0.000101796
-6.47326e-05
0.000670069
-0.000123814
-0.00256653
-6.5024e-05
-7.3856e-05
-7.42663e-05
-0.00824447
0.0127476
0.000252811
0.0118255
-0.000385162
-0.0161963
0.00146941
0.0764703
-0.0285583
-0.0158659
-0.0159799
-0.015547
-0.0156616
0.00259771
0.00139977
0.00252947
-0.014278
0.00248909
0.00154715
0.0153304
-0.00361922
-0.0136854
-0.00111325
0.00252514
0.000141485
0.0158052
-0.00367315
0.00235478
-0.0162295
0.000126885
0.0169134
-0.00338995
0.000224323
0.000339008
-0.002969
1.36077e-05
-8.65751e-06
0.00304355
-0.00041851
0.00217473
0.000219816
-6.77497e-05
0.00070347
-0.000261154
-0.00254622
-6.85452e-05
-7.67479e-05
-7.76e-05
-0.00856468
0.0126469
0.000554844
0.0121634
-0.000803826
-0.0159967
0.0136697
0.0855543
-0.0312145
0.00922265
0.0857496
-0.0324152
-0.0167283
-0.0168666
-0.0163181
-0.016403
0.000616655
0.089963
-0.0323926
0.00250321
0.000581838
0.0023844
-0.0180543
-0.0183004
-0.0176056
-0.0178342
0.00259793
-0.0175687
0.0011585
0.0181698
-0.00374091
0.000341962
-0.00332132
-0.000283467
0.000237727
0.00345175
-0.000426654
0.00217447
0.000499954
-7.16906e-05
0.000817138
-0.000630184
-0.00254646
-7.5769e-05
-8.07028e-05
-8.67664e-05
-0.0091616
0.0125092
0.00111617
0.0127791
-0.00158142
-0.0156614
0.010238
0.100056
-0.036638
0.0122904
0.100695
-0.0375729
0.00316899
0.101987
-0.0364873
0.00534296
0.00309338
0.00532844
0.00287723
-0.0192379
0.00405921
0.0195451
-0.00407467
-0.00378837
0.000259201
-0.00110367
0.00101264
-0.000247884
0.00386808
0.00122332
-0.000197382
0.00203788
0.00154397
-0.00124794
-0.00227983
-0.000409731
-0.000240976
-0.000429307
-0.0106159
0.0124874
0.0019159
0.0139
-0.00180251
-0.0158848
0.0131453
0.113056
-0.0396308
0.0194153
0.112883
-0.0408213
0.0293583
0.111147
-0.0407443
0.00900149
0.101815
-0.0453134
-0.0209066
-0.0208649
-0.0201832
-0.0199707
0.00917814
0.00710145
0.00848488
0.00407204
0.00474635
0.00590952
0.00628826
-0.017343
0.00470419
0.0101528
0.0179304
-0.00644282
-0.00248567
0.00108328
0.00990113
0.0137432
-0.00851963
-0.00219551
-0.00263957
-0.00246563
-0.0104584
0.00137477
0.00123672
0.00142528
-0.00181453
0.00165996
-0.00943575
0.00912595
0.0112195
-0.010484
-0.00163582
-0.00201098
-0.00195136
0.00180502
0.00172068
0.00180128
-0.00148716
0.00182493
-0.00924573
0.00963748
0.00942702
-0.0112487
-0.00131926
-0.00167224
-0.00161528
0.00192554
0.00185541
0.00191801
-0.000962587
0.0020553
-0.0104332
0.0115798
0.00649643
-0.0122722
-0.000721778
-0.00116255
-0.000959054
0.0021592
0.00206203
0.00215868
9.76458e-05
-0.0127077
0.0116264
0.0120197
0.00340515
-0.0144412
0.0066321
-0.0888394
0.000894255
0.00101972
-0.000733521
-0.000355557
-0.0131172
-0.0130704
-0.0138656
-0.01363
0.0120827
0.129931
-0.05362
0.0168792
0.129045
-0.0552816
0.0240031
0.125872
-0.0548613
0.028944
0.11639
-0.0604668
0.0297306
0.104711
-0.0612882
-0.0194726
-0.0178544
-0.0191827
-0.0180629
0.00602936
0.0066458
0.00852248
0.00916595
0.0298635
0.0934264
-0.0672144
-0.0158681
-0.0150526
-0.0156124
-0.0149633
0.00712488
0.00770721
0.00986496
0.0104547
0.0312923
0.0830151
-0.0718814
-0.0133771
-0.0125147
-0.0131697
-0.0125866
0.00814628
0.00872939
0.0108339
0.0113759
0.0369252
0.0715948
-0.0766303
-0.0113142
-0.0101286
-0.0111049
-0.0103208
0.00899373
0.0097032
0.0114711
0.0121032
0.0415678
0.057937
-0.0821989
-0.00806448
-0.00613726
-0.00792028
-0.00663493
0.0106959
0.0112487
0.0129342
0.0134975
0.0499586
0.0385892
-0.0927136
-0.00572911
-0.00343657
-0.00592985
-0.00440172
0.0249441
-0.0945678
0.0103968
-0.0587187
0.0128189
-0.060143
0.0160586
-0.0614851
0.0186425
-0.0637049
0.0192634
-0.0704759
0.0197738
-0.0736613
0.0206988
-0.0778022
0.023883
-0.081443
0.0267634
-0.0854111
0.0388465
-0.0929444
-0.0959334
0.0166584
0.00834316
-0.0251696
0.0256291
0.00761746
-0.0239431
0.0368963
0.00525964
-0.0214192
0.0533539
0.000818738
-0.0194368
0.0718339
-0.000623061
-0.0171705
2.70062e-05
-0.000419606
3.42961e-05
0.0896037
-0.000358911
-0.0201959
0.000575528
-0.000401118
0.000551746
0.00193066
0.00293293
0.00221957
0.00342986
0.105348
3.85098e-05
-0.0271676
0.0011501
-4.73523e-05
0.0011345
0.00352775
0.00476075
0.00402037
0.00531132
0.122137
0.000138158
-0.0353347
0.00154515
-1.0162e-05
0.00149297
0.00491644
0.00638521
0.00550794
0.00706537
0.131365
0.00161258
-0.0479198
0.0034291
0.00122495
0.00341193
0.00832357
0.00960951
0.00909317
0.010471
0.131204
0.0026242
-0.0644052
0.00452933
0.00170926
0.00348077
0.0152756
-0.0663064
0.0166387
0.00846639
-0.0270428
0.0246196
0.00761362
-0.0257198
0.0347399
0.0037443
-0.023676
0.0110892
-4.04374e-05
-0.0203555
0.0106813
0.0107778
0.0104018
-0.00031336
7.03567e-05
-0.000302299
0.00196823
0.0126729
-0.00150797
-0.00266707
0.00231712
0.016226
-0.00108484
-0.00308894
-0.0147283
0.00375036
-0.0177507
0.0191532
-0.000552405
-0.00456193
0.00522524
-0.0207898
0.0222029
-0.000342135
-0.00615802
0.00723257
-0.0237422
0.0252185
0.00117403
-0.0082704
-0.0259547
0.0095406
0.0247613
0.00407415
-0.00979724
0.00374362
-0.0796986
-0.0246373
-0.0239089
-0.0249203
-0.0241955
0.00363167
0.00266937
0.00228732
0.0158273
0.00941324
-0.027738
0.0226448
0.00907959
-0.027012
0.0066514
0.00796572
-0.0243286
0.00611443
0.00675665
0.00615251
0.00254673
0.00713132
0.000162526
-0.0032296
0.000957781
-0.00145424
0.00207626
-0.00836732
0.00219038
0.00227174
0.00215521
0.00228595
-0.000544271
-0.000519597
-0.000557589
-0.000494285
0.000304777
-0.0027719
0.000387084
0.00292013
-0.00047894
-0.000361155
0.000694681
-0.00322177
0.00023106
0.00331528
-0.000263079
-0.000756181
0.000964422
-0.00375857
0.000205582
0.00390153
-0.000277191
-0.00103578
0.0013626
-0.0045653
-5.86254e-05
0.00480268
-7.55507e-05
-0.0014658
-0.00475142
0.00194083
-0.00152066
0.00204547
-0.00201244
0.00429821
-0.017
0.0140188
0.0176612
0.00433681
-0.0152733
0.0133225
0.0132404
-0.0276778
0.0198988
0.00282816
-0.0271802
0.00283358
0.0024993
0.00275856
0.00565639
0.00335323
-0.0245518
0.00539582
0.00573275
0.00553382
0.00353547
0.00305949
0.00350772
0.00228839
-0.00100289
0.00522841
0.00202096
-0.00287851
0.000239062
0.000202644
-0.00110234
0.000962154
-3.36168e-05
-0.000267912
0.00279895
-0.000279229
-0.00241688
0.0015213
0.00195427
-0.00291316
-0.000236666
-0.000166858
-0.000261724
-0.0103044
0.0156714
-0.00448633
0.0123987
0.0035017
-0.016781
0.00370591
0.00394014
-0.0272005
0.00379644
0.00354947
0.00387407
0.00405442
0.00378728
0.00387673
0.00293649
0.00411367
0.00318339
-0.00369952
0.0023303
-0.00455594
0.00495376
0.00358353
-0.00295847
0.00177893
-0.00333283
-0.00464914
0.00380995
0.00465958
-0.00226654
0.000221941
-0.000525567
-0.000630003
0.00049208
0.000690546
-0.000249012
0.00304516
-0.00101905
-7.48459e-05
0.000734764
0.000824964
-0.00327154
-7.05584e-05
-8.45877e-05
-8.43007e-05
-0.00738715
0.0170982
-0.00263496
0.00957722
0.00185171
-0.018505
0.0026818
0.00260073
0.00418189
-0.00341788
0.00266129
0.00431108
-0.00336227
-0.00337092
-0.00323924
0.000774466
0.00072423
0.000782979
0.000718337
-0.00563087
0.00205488
0.00581907
-0.00258313
0.000904656
0.000859719
0.00133896
0.00134134
-0.00410466
-0.00448764
0.00149066
-0.00613644
0.00305066
0.00795352
-0.0018708
0.000175235
-0.00119172
-0.000400202
0.000284259
0.00132771
-0.00019529
0.00322212
-0.000467804
-5.60938e-05
0.000565708
0.00039027
-0.00346073
-5.33574e-05
-7.04419e-05
-6.9676e-05
-0.00612549
0.0179418
-0.00130956
0.00807671
0.000896373
-0.0194799
0.00285744
0.00187137
0.00581846
-0.00363857
-0.00479209
0.000595108
-0.000838458
-0.000324117
0.000211922
0.00103152
-0.000675989
-0.000518177
0.00154199
-0.00951172
0.00115962
0.0105571
-0.00198736
-0.000329413
-0.000557849
-0.000354224
0.000169278
-0.00173003
-0.000103468
8.27746e-05
0.00177645
-0.000195015
0.00333815
-0.000220718
-4.45815e-05
0.000494725
0.000179034
-0.00358341
-4.3482e-05
-5.99604e-05
-5.9754e-05
-0.00552922
0.0184335
-0.000608394
0.00733583
0.000397893
-0.0200296
0.00298675
-0.00723595
0.00132272
0.00878572
-0.0037344
0.000498498
-0.00159983
-6.15644e-05
-1.18934e-05
0.00174942
-0.000574632
-0.00011484
0.00191469
-0.0112388
0.000225926
0.0119217
-0.00241911
-8.39505e-05
-0.00014306
-6.26037e-05
0.000215965
-0.00197624
-1.66254e-05
2.22399e-05
0.00200424
-0.000249586
0.00340575
-9.60994e-05
-4.00921e-05
0.000464801
7.53383e-05
-0.00365738
-3.9281e-05
-5.68438e-05
-5.61874e-05
-0.00525988
0.018698
-0.000248069
0.00700654
0.000128444
-0.020325
0.00311524
-0.010326
0.00137918
0.0118195
-0.00383449
0.000519915
-0.00218073
-9.73225e-05
4.62502e-05
0.00229792
-0.000586033
-0.000141249
0.00241711
-0.0127004
0.000152235
0.0135157
-0.00293533
-5.82151e-05
-0.000197368
-5.25177e-05
0.000307299
-0.00222167
1.60691e-05
-1.96505e-06
0.00224182
-0.000341556
0.00345798
-1.71952e-05
-3.56201e-05
0.000455964
2.33334e-07
-0.00372258
-3.57159e-05
-5.13468e-05
-5.17135e-05
-0.00521291
0.01882
-3.11389e-05
0.00692432
-5.68839e-05
-0.0204434
0.00328455
-0.0132294
0.00193227
0.0142126
-0.00401051
0.000607873
-0.00279533
-0.000238039
0.000156855
0.00294469
-0.000676052
5.50059e-07
0.00328202
-0.0143316
-0.000234039
0.0147685
-0.00390933
0.000262451
-9.23576e-05
0.000253794
0.000439855
-0.00244398
4.90386e-05
-2.61806e-05
0.00246505
-0.000483783
0.00345834
5.06046e-05
-3.71185e-05
0.000456372
-6.73228e-05
-0.0037172
-3.73961e-05
-5.32841e-05
-5.29892e-05
-0.0053183
0.0187575
0.000154224
0.00702503
-0.00027608
-0.0203424
-0.0145821
0.00345552
0.00313053
0.0143205
-0.00418968
0.00342243
-0.00278991
0.0123606
-0.00412019
-0.00300711
-0.00277742
-0.00300017
0.00116288
0.00106779
0.00114436
0.00106769
-0.00453096
-0.00122898
-0.000249081
0.00100398
-0.000129095
0.00168828
-0.00108512
0.00161727
0.00371804
-0.0148086
-0.000858739
0.0148312
-0.00449915
0.000560282
-0.00264554
8.56458e-05
-4.6736e-05
0.00266656
-0.000620224
0.0034649
0.000144759
-3.33581e-05
0.000478667
-0.000179991
-0.00375335
-3.25764e-05
-4.51591e-05
-4.38859e-05
-0.00566063
0.0185901
0.000427586
0.00737805
-0.000629988
-0.0201051
0.00163144
0.0693421
-0.0395545
-0.01471
-0.0147965
-0.0143593
-0.0144554
0.00269322
0.00149085
0.00251802
-0.0131405
0.00469442
0.00176862
0.0139795
-0.00567071
-0.0124421
-0.00137096
0.00476672
0.000470096
0.0143247
-0.00574853
0.00441092
-0.0150188
0.000632983
0.0154708
-0.00532069
-0.000175245
0.000652113
-0.00280601
-0.000130438
0.000113749
0.0028858
-0.000715225
0.0035037
0.000367578
-2.22445e-05
0.000557138
-0.000443574
-0.00383125
-2.73996e-05
-4.67874e-05
-5.71575e-05
-0.0063807
0.0182558
0.000863911
0.00813049
-0.00126859
-0.0196009
0.0133219
0.0765697
-0.0434409
0.00963242
0.0764313
-0.0453757
-0.0151495
-0.0152274
-0.0147134
-0.014691
0.0010844
0.0795113
-0.0452554
0.00285575
0.000836892
0.00259898
-0.0162682
-0.016484
-0.0157333
-0.0159066
0.00496697
-0.0158847
0.00183851
0.0163713
-0.00620771
0.000667259
-0.00309457
-0.000540633
0.000505464
0.00320589
-0.000743406
0.00348168
0.000864188
-0.000102411
0.000965341
-0.00105807
-0.00370089
-0.000136784
-0.000126177
-0.000186871
-0.00782691
0.0177552
0.00169756
0.00944508
-0.00191678
-0.0191542
0.0101249
0.0879695
-0.0498481
0.0117726
0.0884543
-0.0512436
0.00329167
0.0892393
-0.0502283
0.00516577
0.00274431
0.00458396
0.00574155
-0.0168916
0.00462077
0.0168847
-0.00706375
0.00530208
-0.00343331
0.0155256
-0.00764417
-0.00336217
-0.00337356
-0.00326085
0.00163214
0.00180234
0.00146801
0.00168424
-0.00634032
0.00148763
-0.00046778
-0.0024267
0.00233844
0.00226039
-0.00176881
-0.000432162
-0.000508519
-0.000482492
0.00238004
-0.000377175
-0.00185435
0.00180237
0.00179211
-0.00253738
-0.000357396
-0.000424691
-0.000423521
0.00248288
-0.000355642
-0.00182565
0.00189379
0.00159934
-0.00266458
-0.000331889
-0.000400184
-0.000398063
0.0025715
-0.000277128
-0.00229064
0.00252036
0.00116608
-0.00281327
-0.000239828
-0.00031942
-0.000317645
0.00335388
0.000755963
-0.00266247
0.0115613
0.00107016
-0.0172522
0.00065379
0.000156112
0.000283426
0.00342972
0.00351144
0.00348854
-0.00256915
-0.00293119
-0.00284931
0.00562662
-0.0982235
-0.0120388
-0.0118239
-0.013476
-0.0129989
0.0197189
0.0190653
0.0195804
0.019206
0.00124477
0.00144889
-0.000381968
-0.000227365
0.0122139
0.0982974
-0.0538545
0.0176179
0.0981197
-0.0558907
0.0247229
0.097117
-0.055727
0.00640395
0.0888424
-0.0620855
-0.0182804
-0.0181868
-0.0182554
-0.0177779
0.00738947
0.00513569
0.00622401
-0.0151569
0.00853172
0.00716485
0.0161178
-0.0102534
-0.0126246
0.0112611
-0.00791703
0.00792307
0.013851
-0.0124936
-0.0107423
0.0130684
-0.00789676
0.00789325
0.0120914
-0.0144141
-0.0091114
0.013926
-0.00815177
0.00848712
0.0102752
-0.0154251
-0.00637591
0.0147208
-0.00914431
0.00962883
0.00764217
-0.0164716
0.0535822
0.0234819
-0.0964553
-0.00324031
-0.00125966
-0.00475723
-0.00342323
0.0182952
0.0183673
0.0176982
0.0183499
-0.0102479
-0.0089301
-0.0110229
-0.0104381
0.00948516
-0.100596
0.0114696
0.108411
-0.0668792
0.0154186
0.107595
-0.0687061
0.0219187
0.105042
-0.0692864
0.0268328
0.0965281
-0.0730665
0.0268003
0.0876325
-0.0785744
-0.0178041
-0.0171684
-0.0181308
-0.0172105
0.0263924
0.0784635
-0.0831858
-0.0156801
-0.0149714
-0.01601
-0.0154226
0.0275619
0.068919
-0.0875869
-0.0137311
-0.0128741
-0.0141816
-0.0135961
0.0300137
0.0581084
-0.091774
-0.0116158
-0.0103174
-0.0121353
-0.0113481
0.0314839
0.0451748
-0.0957676
-0.00878721
-0.00669722
-0.00926681
-0.00832506
0.0358824
0.0298258
-0.103456
0.0157098
-0.106468
0.00999836
-0.0726091
0.011928
-0.0744222
0.014439
-0.0754987
0.0161675
-0.0781188
0.0168066
-0.0818289
0.0175799
-0.0854463
0.0186249
-0.0894046
0.0206863
-0.0934669
0.0225582
-0.0978355
0.0278285
-0.104862
-0.109483
0.0159711
0.00846964
-0.0326727
0.0242138
0.00781487
-0.0315051
0.0339779
0.00646601
-0.0291592
0.0478389
0.00228112
-0.0271025
0.0647443
0.000104349
-0.0266941
0.000610594
5.31063e-05
0.000316083
0.0814202
2.90637e-06
-0.0292492
0.000770925
-0.000323303
0.000395203
0.0960437
0.000146688
-0.0349198
0.00113066
-0.000329314
0.00066387
0.110503
0.000133888
-0.0430838
0.0014315
-0.000533532
0.00075531
0.117512
0.000982561
-0.052301