/*--------------------------------*- C++ -*----------------------------------*\
| =========                 |                                                 |
| \\      /  F ield         | OpenFOAM: The Open Source CFD Toolbox           |
|  \\    /   O peration     | Version:  v1906                                 |
|   \\  /    A nd           | Web:      www.OpenFOAM.com                      |
|    \\/     M anipulation  |                                                 |
\*---------------------------------------------------------------------------*/
FoamFile
{
    version     2.0;
    format      ascii;
    class       volVectorField;
    location    "50";
    object      U;
}
// * * * * * * * * * * * * * * * * * * * * * * * * * * * * * * * * * * * * * //

dimensions      [0 1 -1 0 0 0 0];


internalField   nonuniform List<vector> 
34761
(
(0.152053 0.0853203 -0.0565492)
(0.265198 0.0730472 -0.0452266)
(0.361652 0.0368054 -0.0426622)
(0.543966 0.0510375 0.00105043)
(0.555858 0.0460157 -0.0174481)
(0.754092 0.0542328 -0.0243059)
(0.918756 0.0631952 -0.0330553)
(1.10803 0.0686311 -0.0433242)
(1.33709 0.0756722 -0.0541035)
(1.6888 0.0155285 -0.23617)
(2.13729 0.174173 -0.259208)
(0.153903 0.104725 -0.0635274)
(0.245022 0.0992298 -0.0603758)
(0.353618 0.0419148 -0.0269743)
(0.380272 -0.00770232 -0.0250491)
(0.600953 -0.0855324 -0.0175272)
(0.839016 -0.00802188 -0.0278436)
(0.994815 0.0163182 -0.0364524)
(1.18319 0.0279287 -0.0468395)
(1.4066 0.0675779 -0.0565572)
(1.56187 0.215264 -0.0531221)
(1.89401 0.37158 -0.335974)
(0.15586 0.118781 -0.0696283)
(0.22926 0.0922674 -0.0639034)
(0.317925 0.0506463 -0.0594024)
(0.310646 -0.00523958 -0.0231718)
(0.306174 -0.138685 0.00763261)
(0.500518 -0.0432104 -0.00219119)
(0.512267 -0.0188209 -0.00569531)
(0.60765 -0.0190619 -0.00703103)
(0.753659 -0.00100621 -0.00840739)
(0.799696 0.653083 -0.112222)
(0.950444 0.277705 -0.181583)
(0.118 0.162812 -0.0636413)
(0.178609 0.170248 -0.0626735)
(0.276115 0.184239 -0.0491114)
(0.261155 0.0825334 -0.0180017)
(0.177224 0.00940988 -0.00342069)
(0.287426 0.338138 -0.00323877)
(0.816489 0.175462 -0.198356)
(0.145525 0.258572 -0.0595962)
(0.165868 0.175571 -0.0248801)
(0.220065 0.17546 -0.0170971)
(0.200154 0.201915 -0.00947516)
(0.0890027 0.142545 -0.00306003)
(0.273368 0.179939 -0.00884821)
(0.774315 0.0883443 -0.214005)
(0.114209 0.254382 -0.0234645)
(0.148613 0.212485 -0.0164472)
(0.281885 0.207842 -0.0126225)
(0.165516 0.332518 -0.00760064)
(0.0601438 0.253736 -0.00308254)
(0.273039 0.0977226 -0.0154308)
(0.752254 0.0421547 -0.221563)
(0.0957414 0.323876 -0.0180837)
(0.0543132 0.256209 -0.00996604)
(0.135574 0.469093 0.00579131)
(0.0360089 0.343928 -0.00338075)
(0.274346 0.0512315 -0.0210638)
(0.741686 0.0190287 -0.224905)
(0.078354 0.444844 -0.0201718)
(-0.00568135 0.377719 -0.00872029)
(0.285303 0.481865 0.0248655)
(0.0591848 0.381036 -0.00207879)
(0.276691 0.0240191 -0.0252986)
(0.737665 0.00714122 -0.226255)
(0.0742832 0.592052 -0.0210331)
(-0.000579723 0.477375 -0.00768297)
(0.242586 0.549436 0.00603312)
(0.0349815 0.442432 -0.0036761)
(0.280153 0.00701034 -0.0285417)
(0.737453 0.00109679 -0.226747)
(0.0713982 0.746403 -0.0224798)
(-0.00628697 0.617564 -0.00956684)
(0.0690373 0.684644 -0.0251566)
(-0.000748252 0.500474 -0.00533555)
(0.279405 -0.00696423 -0.0287691)
(0.736966 -0.00262199 -0.226597)
(0.137095 0.827064 -0.0247035)
(0.343848 0.667919 -0.0260517)
(-0.086308 0.296397 -0.0111225)
(-0.0847238 0.768628 -0.0266906)
(-0.0225039 0.548039 -0.00603915)
(0.275675 -0.0229252 -0.0263975)
(0.737984 -0.0104777 -0.226091)
(0.100636 0.932656 -0.104233)
(0.0719014 0.781502 -0.033321)
(0.0249086 0.755985 -0.0318954)
(-0.0026268 0.807287 -0.0298482)
(-0.0101381 0.586574 -0.00719286)
(0.273465 -0.046094 -0.0237107)
(0.742107 -0.0241951 -0.224748)
(0.17453 1.05413 -0.110977)
(0.184899 1.04648 -0.11493)
(0.0509 1.10799 -0.112212)
(0.00913301 0.887352 -0.0330239)
(0.025029 0.661234 -0.007267)
(0.27369 -0.084635 -0.022377)
(0.748063 -0.047824 -0.221249)
(0.124698 1.15541 -0.136153)
(0.125784 1.15748 -0.136548)
(0.145796 1.18142 -0.13001)
(0.119839 0.996488 -0.040786)
(0.128754 0.763116 -0.0113514)
(0.300779 -0.166869 -0.0440616)
(0.743394 -0.0757684 -0.207955)
(0.143724 1.5048 -0.146024)
(0.172286 1.52851 -0.150161)
(0.30017 1.51082 -0.136484)
(0.300625 1.01519 -0.0883591)
(0.442725 0.909787 -0.118713)
(0.523644 0.40759 -0.0766593)
(0.395049 0.291471 -0.0818072)
(0.391691 0.242437 -0.0806254)
(0.477233 0.15827 -0.078496)
(0.749626 -0.00783605 -0.165977)
(1.43818 0.0131847 -0.486064)
(0.13889 1.51938 -0.242451)
(0.158986 1.50157 -0.254446)
(0.301249 1.48195 -0.236808)
(0.309746 1.29951 -0.341355)
(0.211031 1.1164 -0.145295)
(0.336385 0.934851 -0.151231)
(0.358795 0.84352 -0.161617)
(0.392464 0.753934 -0.172158)
(0.474678 0.631566 -0.181832)
(0.560079 0.35577 -0.546218)
(1.18301 0.164937 -0.542392)
(0.114453 2.23645 -0.267805)
(0.148656 2.22947 -0.2741)
(0.187417 2.18067 -0.285203)
(0.290746 2.04777 -0.301902)
(0.305296 1.83887 -0.410057)
(0.203188 1.7618 -0.412264)
(0.230356 1.66498 -0.435534)
(0.232776 1.54991 -0.44568)
(0.335434 1.40322 -0.46476)
(0.368292 1.12 -0.517254)
(1.0514 0.93278 -0.517344)
(0.151067 0.0901713 -0.15422)
(0.249843 0.0739663 -0.139157)
(0.374021 0.0677728 -0.112928)
(0.490562 -0.00776058 -0.0700436)
(0.791895 0.0686302 -0.067973)
(0.747307 0.0701174 -0.125678)
(0.867102 0.0629741 -0.138805)
(1.0367 0.066298 -0.18116)
(1.22639 0.0710496 -0.254826)
(1.54033 0.0141828 -0.679692)
(1.73164 0.165569 -0.61325)
(0.146304 0.106037 -0.171169)
(0.254512 0.0991344 -0.161303)
(0.336661 0.0541585 -0.121895)
(0.512218 -0.0159264 -0.11465)
(0.570072 -0.0945753 -0.0824624)
(0.792103 0.0102004 -0.109332)
(0.939217 0.00431281 -0.140165)
(1.10756 0.0118887 -0.186575)
(1.29475 0.0596855 -0.24884)
(1.39109 0.177421 -0.33555)
(1.49619 0.298532 -0.712488)
(0.152381 0.104197 -0.17988)
(0.221266 0.0835606 -0.171412)
(0.314379 0.0261564 -0.153151)
(0.29524 -0.0234489 -0.0732009)
(0.319351 -0.103277 -0.0216131)
(0.618806 -0.0702651 -0.0025373)
(0.68089 -0.0242442 -0.0703557)
(0.803409 -0.0237549 -0.0999106)
(1.00495 0.0135538 -0.155068)
(0.882398 0.441389 -0.266144)
(0.788964 0.265804 -0.562848)
(0.119214 0.14524 -0.174746)
(0.181797 0.149446 -0.170912)
(0.271228 0.171334 -0.146117)
(0.251443 0.0724366 -0.066098)
(0.177486 0.00104265 -0.0213654)
(0.209938 0.377845 -0.356899)
(0.592565 0.17991 -0.624766)
(0.14762 0.223913 -0.16942)
(0.175844 0.155355 -0.0881529)
(0.221289 0.165389 -0.0671799)
(0.194438 0.196474 -0.0500192)
(0.0870918 0.135621 -0.0172985)
(0.160997 0.166433 -0.39829)
(0.506797 0.0934993 -0.673479)
(0.115141 0.227831 -0.086522)
(0.157493 0.186485 -0.0794699)
(0.287609 0.205577 -0.0597769)
(0.158322 0.33263 -0.0440144)
(0.0545899 0.25017 -0.0138025)
(0.142149 0.0834574 -0.428594)
(0.459187 0.0459907 -0.703671)
(0.09559 0.292995 -0.0876548)
(0.0633234 0.221025 -0.0625321)
(0.0658239 0.477798 -0.041195)
(0.0192583 0.342428 -0.0110036)
(0.131338 0.041052 -0.448405)
(0.434384 0.0216678 -0.720707)
(0.0770912 0.417363 -0.0915918)
(-0.00629495 0.354528 -0.040787)
(0.0132554 0.539588 -0.0577399)
(0.00736565 0.386176 -0.0116166)
(0.125445 0.0183353 -0.460196)
(0.422875 0.00880109 -0.729635)
(0.0729628 0.562817 -0.095799)
(-0.00179084 0.460935 -0.0490887)
(0.0102284 0.602402 -0.0748491)
(0.000522065 0.433449 -0.0243692)
(0.122809 0.0045916 -0.468032)
(0.419386 0.00139025 -0.73405)
(0.0711453 0.713461 -0.101438)
(-0.00644342 0.600765 -0.0578221)
(-0.0147012 0.688949 -0.102111)
(-0.00891283 0.480726 -0.0435028)
(0.122785 -0.00658612 -0.46763)
(0.420344 -0.00504935 -0.7327)
(0.136084 0.783977 -0.112574)
(0.331523 0.628107 -0.114688)
(-0.0534604 0.275774 -0.107644)
(-0.0848184 0.734745 -0.117069)
(-0.022608 0.52494 -0.0583401)
(0.125439 -0.020863 -0.463808)
(0.427172 -0.0148596 -0.728487)
(0.0988872 0.866334 -0.280266)
(0.0774303 0.724157 -0.148016)
(0.0312825 0.701694 -0.148933)
(0.00448459 0.764538 -0.137121)
(-0.00367011 0.565091 -0.0693456)
(0.13169 -0.0446874 -0.459171)
(0.441646 -0.0312544 -0.721297)
(0.168188 0.959934 -0.302005)
(0.178628 0.952978 -0.311603)
(0.0626532 1.00831 -0.306132)
(0.0250939 0.841364 -0.152338)
(0.0389843 0.640626 -0.0690362)
(0.147905 -0.104085 -0.454076)
(0.464591 -0.061859 -0.712435)
(0.12465 1.049 -0.358527)
(0.128537 1.04588 -0.364742)
(0.171566 1.07526 -0.349293)
(0.138344 0.958505 -0.174157)
(0.179492 0.740078 -0.0674427)
(0.302557 -0.287199 -0.442715)
(0.505016 -0.0940587 -0.717691)
(0.139571 1.31548 -0.386049)
(0.177579 1.32481 -0.393741)
(0.286269 1.31566 -0.389211)
(0.400284 1.22644 -0.429377)
(0.436933 0.826609 -0.280417)
(0.471691 0.60148 -0.3433)
(0.43071 0.471149 -0.441395)
(0.443991 0.38451 -0.474449)
(0.518712 0.247518 -0.522693)
(0.640547 0.0684436 -0.655959)
(0.883998 0.0474582 -0.998037)
(0.127566 1.32616 -0.559854)
(0.161836 1.31211 -0.578607)
(0.240759 1.282 -0.563008)
(0.32605 1.15642 -0.649323)
(0.3585 1.02166 -0.606842)
(0.345048 0.863174 -0.684444)
(0.363226 0.726575 -0.742281)
(0.375415 0.596063 -0.798294)
(0.497857 0.412338 -0.89129)
(0.479591 0.276845 -1.03276)
(0.715332 0.110431 -1.06068)
(0.112732 1.75309 -0.616459)
(0.136182 1.74636 -0.629656)
(0.168941 1.70219 -0.647488)
(0.211939 1.60794 -0.665908)
(0.229026 1.46648 -0.775809)
(0.227521 1.35681 -0.799994)
(0.240669 1.2424 -0.84347)
(0.247501 1.10096 -0.879576)
(0.315867 0.965337 -0.920843)
(0.310755 0.649651 -1.02703)
(0.617811 0.495786 -1.05594)
(0.145549 0.0899652 -0.257579)
(0.24979 0.078249 -0.242453)
(0.358781 0.0648862 -0.210359)
(0.517706 0.0114611 -0.187314)
(0.746409 0.0234375 -0.133715)
(0.946079 0.0356507 -0.175763)
(1.15647 0.0540873 -0.273448)
(1.30898 0.0568063 -0.366929)
(1.5643 0.119361 -0.563729)
(1.53725 0.0843026 -0.780919)
(1.59062 0.165949 -0.768357)
(0.145039 0.105669 -0.279304)
(0.250189 0.100727 -0.265107)
(0.334376 0.0587764 -0.240041)
(0.493634 0.0112751 -0.215262)
(0.544503 -0.0520819 -0.112424)
(0.737252 -0.03443 -0.125173)
(0.878958 -0.0205391 -0.196588)
(1.03335 -0.0219328 -0.26923)
(1.18249 0.0383895 -0.367043)
(1.26913 0.13149 -0.514002)
(1.34531 0.193935 -0.950869)
(0.149312 0.0941904 -0.288208)
(0.225929 0.077555 -0.277283)
(0.312282 0.0280926 -0.25406)
(0.318407 -0.00990511 -0.141674)
(0.439992 -0.107866 -0.0662861)
(0.537578 -0.0631646 -0.0671485)
(0.615704 -0.0520039 -0.13938)
(0.72843 -0.0552281 -0.192647)
(0.901896 -0.0264572 -0.261739)
(0.877726 0.286587 -0.403385)
(0.753988 0.170666 -0.747804)
(0.123885 0.127654 -0.286042)
(0.189869 0.134987 -0.277543)
(0.27989 0.155978 -0.245481)
(0.262807 0.0673785 -0.124883)
(0.196787 -0.0163828 -0.0459539)
(0.225902 0.383856 -0.528605)
(0.501457 0.187963 -0.814358)
(0.152301 0.1906 -0.283035)
(0.185557 0.133533 -0.157008)
(0.231141 0.153786 -0.121498)
(0.204997 0.184374 -0.0930439)
(0.104602 0.118246 -0.0402226)
(0.127323 0.170692 -0.613554)
(0.381027 0.102399 -0.886754)
(0.116706 0.195552 -0.158001)
(0.172072 0.157505 -0.146088)
(0.300049 0.197958 -0.106766)
(0.167128 0.319646 -0.0786892)
(0.0605764 0.237067 -0.0304444)
(0.104704 0.0811648 -0.650513)
(0.316776 0.0503987 -0.932482)
(0.095405 0.254978 -0.162974)
(0.0686727 0.179031 -0.120497)
(0.0517905 0.454241 -0.0805266)
(0.017395 0.329157 -0.0302485)
(0.0937841 0.0379806 -0.67338)
(0.284004 0.0228043 -0.959534)
(0.0777172 0.381024 -0.162229)
(-0.0045651 0.318875 -0.0934293)
(-0.0112028 0.505834 -0.0967715)
(0.00207634 0.366675 -0.0391839)
(0.0883089 0.0165605 -0.687357)
(0.269595 0.00849454 -0.974002)
(0.0728997 0.525952 -0.165222)
(0.000977466 0.430705 -0.102182)
(-0.00611244 0.574579 -0.118006)
(-0.00384583 0.410515 -0.0554962)
(0.0872253 0.00193214 -0.697568)
(0.266044 -0.000866648 -0.980026)
(0.071703 0.672245 -0.172998)
(-0.00288543 0.568649 -0.111318)
(-0.0144106 0.652382 -0.156239)
(-0.00900555 0.454049 -0.0814018)
(0.0878748 -0.0106976 -0.698752)
(0.271106 -0.0103299 -0.975774)
(0.135087 0.734317 -0.191307)
(0.324691 0.586445 -0.191409)
(-0.0289332 0.253337 -0.186546)
(-0.0648415 0.68749 -0.195088)
(-0.0138151 0.497493 -0.107316)
(0.0946687 -0.0299582 -0.700555)
(0.286433 -0.0255502 -0.965689)
(0.09862 0.796055 -0.428647)
(0.0865986 0.659719 -0.252049)
(0.0445411 0.635125 -0.253895)
(0.0236962 0.703547 -0.234455)
(0.0207633 0.531627 -0.125846)
(0.106703 -0.0760542 -0.708369)
(0.31662 -0.0489621 -0.947258)
(0.162763 0.861587 -0.466749)
(0.174687 0.850008 -0.482789)
(0.0763254 0.896622 -0.477653)
(0.0521237 0.759595 -0.273424)
(0.0867289 0.596067 -0.134999)
(0.153134 -0.17811 -0.683121)
(0.357832 -0.0892618 -0.926859)
(0.121132 0.938647 -0.538924)
(0.13001 0.934274 -0.55132)
(0.160381 0.948971 -0.534185)
(0.157671 0.823369 -0.339954)
(0.314573 0.766868 -0.349059)
(0.455362 0.429516 -0.339579)
(0.335756 0.354479 -0.46314)
(0.342789 0.32628 -0.483124)
(0.449729 0.239354 -0.485079)
(0.621465 0.0177312 -0.853556)
(0.745435 0.0216111 -1.21046)
(0.136849 1.14065 -0.58179)
(0.159112 1.14822 -0.600544)
(0.266708 1.14499 -0.599208)
(0.315637 1.06894 -0.675792)
(0.298671 0.731971 -0.486075)
(0.372108 0.609931 -0.607836)
(0.37005 0.526674 -0.689399)
(0.394802 0.443881 -0.729501)
(0.458132 0.318048 -0.75854)
(0.558801 0.268978 -1.16637)
(0.727618 0.121072 -1.20009)
(0.122438 1.15815 -0.747652)
(0.153884 1.14559 -0.766701)
(0.216429 1.1247 -0.768995)
(0.305927 1.00992 -0.817114)
(0.330442 0.930465 -0.877659)
(0.305639 0.817022 -0.935112)
(0.319185 0.707136 -0.981464)
(0.331691 0.58407 -1.03371)
(0.377679 0.425351 -1.08112)
(0.369644 0.287884 -1.21556)
(0.490341 0.107414 -1.25024)
(0.111292 1.40955 -0.815342)
(0.129217 1.40233 -0.834612)
(0.157081 1.36342 -0.846189)
(0.187553 1.27827 -0.877862)
(0.197519 1.15054 -0.927151)
(0.201747 1.04617 -0.972752)
(0.215122 0.928167 -1.02257)
(0.225078 0.794501 -1.07186)
(0.264984 0.650377 -1.13222)
(0.268399 0.426872 -1.22078)
(0.397575 0.272515 -1.27766)
(0.142776 0.0921157 -0.347701)
(0.236247 0.0814269 -0.333445)
(0.339159 0.0765632 -0.304839)
(0.467282 0.0253675 -0.28204)
(0.665778 0.0349968 -0.280723)
(0.85842 0.0328926 -0.310354)
(1.05187 0.0366409 -0.374248)
(1.19624 0.0298626 -0.468564)
(1.40167 0.065057 -0.574354)
(1.37086 0.0857475 -0.773566)
(1.45608 0.0838063 -0.850281)
(0.14334 0.106711 -0.371627)
(0.245702 0.102439 -0.352708)
(0.323895 0.075449 -0.328854)
(0.458305 0.032135 -0.276894)
(0.495392 -0.00707936 -0.193342)
(0.649087 -0.00826429 -0.217083)
(0.778228 -0.00125218 -0.281887)
(0.925814 -0.00333319 -0.358612)
(1.07768 0.0304722 -0.448946)
(1.41442 0.123124 -0.83845)
(1.37754 0.141134 -1.01804)
(0.147734 0.0875781 -0.38122)
(0.228523 0.0765674 -0.370631)
(0.297018 0.0389397 -0.325997)
(0.316114 0.0143816 -0.219721)
(0.449839 -0.0703541 -0.126878)
(0.649026 -0.0792021 -0.152151)
(0.77246 -0.0655087 -0.229523)
(0.923357 -0.0644327 -0.302756)
(1.10423 -0.004413 -0.423648)
(1.19225 0.141441 -0.640218)
(1.14135 0.151556 -1.02849)
(0.129117 0.112962 -0.387156)
(0.201164 0.127226 -0.372995)
(0.289454 0.155002 -0.334267)
(0.277964 0.0811689 -0.18852)
(0.241599 -0.0214823 -0.06672)
(0.39808 -0.037181 -0.0510738)
(0.384635 -0.0630381 -0.0995962)
(0.457631 -0.0740885 -0.127776)
(0.577784 -0.0768076 -0.156947)
(0.610981 0.497104 -0.694449)
(0.565034 0.170328 -0.912609)
(0.15519 0.15491 -0.390566)
(0.197018 0.114743 -0.227474)
(0.246384 0.144246 -0.181649)
(0.231905 0.172775 -0.146276)
(0.159389 0.0997335 -0.061068)
(0.188833 0.174059 -0.836817)
(0.412142 0.0979676 -1.0081)
(0.118957 0.163593 -0.230857)
(0.190166 0.12653 -0.214486)
(0.317394 0.187238 -0.15851)
(0.195575 0.29635 -0.119768)
(0.107093 0.207631 -0.0437053)
(0.159095 0.0589357 -0.888371)
(0.34666 0.0442492 -1.06576)
(0.0951757 0.2114 -0.24185)
(0.0738531 0.133725 -0.180015)
(0.073645 0.413446 -0.126809)
(0.0564798 0.291535 -0.0489938)
(0.147 0.0416941 -0.891729)
(0.316273 0.015553 -1.09753)
(0.0778352 0.337221 -0.235885)
(-0.0053495 0.276056 -0.151407)
(0.0159828 0.449307 -0.148934)
(0.0409409 0.321976 -0.0683648)
(0.152215 -0.00051666 -0.916808)
(0.306922 0.00299971 -1.11468)
(0.0732718 0.481692 -0.233452)
(0.00482037 0.393449 -0.156561)
(0.020215 0.508836 -0.170189)
(0.0352722 0.353753 -0.0929001)
(0.208908 -0.00576303 -0.904207)
(0.312913 -0.00885417 -1.11242)
(0.0726827 0.623893 -0.240528)
(0.000969285 0.530638 -0.163635)
(0.0136347 0.579392 -0.219962)
(0.0252993 0.387555 -0.130084)
(0.24027 -0.0185682 -0.959286)
(0.331764 -0.0169236 -1.10259)
(0.134304 0.678732 -0.262706)
(0.319877 0.538595 -0.259662)
(0.0085184 0.226527 -0.244737)
(-0.0261604 0.609558 -0.277298)
(0.0281738 0.423909 -0.164448)
(0.257983 -0.0722901 -1.02105)
(0.367814 -0.0386327 -1.07968)
(0.101124 0.718665 -0.554151)
(0.0992491 0.587781 -0.342663)
(0.065966 0.554306 -0.344266)
(0.0508826 0.611866 -0.345425)
(0.0833996 0.463086 -0.188152)
(0.216787 0.253964 -0.0789571)
(0.23986 0.289865 -0.102515)
(0.309719 0.275853 -0.10093)
(0.450633 0.229626 -0.0878844)
(0.520517 -0.153071 -0.958148)
(0.439088 -0.0370841 -1.01964)
(0.156474 0.760189 -0.604499)
(0.171186 0.744319 -0.631186)
(0.077237 0.780641 -0.622611)
(0.0750563 0.660552 -0.409792)
(0.202191 0.677923 -0.3687)
(0.295997 0.462149 -0.254986)
(0.313198 0.457627 -0.330157)
(0.379695 0.426308 -0.344174)
(0.544464 0.321022 -0.377062)
(0.735657 0.057923 -0.90121)
(0.754042 0.0536297 -1.25698)
(0.11958 0.823724 -0.683898)
(0.133476 0.809015 -0.70055)
(0.155489 0.822896 -0.68395)
(0.216477 0.859401 -0.684255)
(0.221203 0.690165 -0.483393)
(0.349539 0.620096 -0.564395)
(0.387441 0.565145 -0.638477)
(0.456855 0.493743 -0.679252)
(0.568604 0.355599 -0.731219)
(0.687223 0.197963 -1.17144)
(0.725844 0.0767961 -1.22969)
(0.124029 0.972814 -0.735431)
(0.150276 0.978378 -0.762058)
(0.191424 0.975538 -0.754657)
(0.258173 0.947751 -0.82828)
(0.325176 0.867134 -0.840426)
(0.358617 0.780431 -0.912894)
(0.414387 0.681035 -0.979906)
(0.446752 0.569804 -1.0325)
(0.585023 0.425475 -1.10793)
(0.589949 0.28151 -1.17634)
(0.625485 0.0931431 -1.26435)
(0.114424 0.996573 -0.885608)
(0.136756 0.993184 -0.907437)
(0.173148 0.973672 -0.914431)
(0.222 0.925461 -0.9539)
(0.257978 0.851921 -1.01991)
(0.278652 0.774233 -1.06651)
(0.302873 0.687801 -1.11741)
(0.321349 0.576898 -1.16231)
(0.360895 0.465473 -1.21887)
(0.368103 0.254603 -1.28842)
(0.413362 0.117855 -1.34476)
(0.107455 1.17108 -0.957768)
(0.120677 1.16967 -0.97972)
(0.137491 1.14182 -0.990022)
(0.158326 1.08429 -1.01684)
(0.172364 1.00447 -1.05193)
(0.179528 0.911682 -1.08712)
(0.195589 0.810544 -1.12681)
(0.202238 0.680529 -1.17392)
(0.240588 0.551961 -1.22342)
(0.243458 0.339542 -1.31678)
(0.302504 0.186789 -1.38087)
(0.138862 0.0918132 -0.440297)
(0.230201 0.0886158 -0.425944)
(0.319251 0.0785891 -0.398523)
(0.428922 0.0766694 -0.372331)
(0.587463 0.0406385 -0.364563)
(0.736469 0.0273001 -0.393617)
(0.909192 0.0194629 -0.458996)
(1.03393 0.0122367 -0.553543)
(1.21154 0.0106981 -0.668571)
(1.27185 0.0436936 -0.830223)
(1.35272 0.0531729 -0.900022)
(0.147139 0.107881 -0.46632)
(0.240422 0.102866 -0.445904)
(0.345522 0.103038 -0.415431)
(0.444354 0.0304856 -0.367397)
(0.613925 0.0257047 -0.336718)
(0.78832 0.0150974 -0.361017)
(0.964645 0.0246481 -0.440376)
(1.09914 0.0168229 -0.533356)
(1.30274 0.0603905 -0.708784)
(1.34601 0.0730553 -0.899165)
(1.3334 0.155669 -0.992399)
(0.143562 0.078281 -0.47667)
(0.249844 0.067474 -0.454524)
(0.290586 0.0454215 -0.415326)
(0.412161 0.0155533 -0.387182)
(0.430926 -0.0205243 -0.267671)
(0.56654 -0.0567118 -0.260729)
(0.679564 -0.0574745 -0.324619)
(0.81489 -0.0674732 -0.402737)
(0.950867 -0.0222823 -0.52631)
(1.06365 0.0470174 -0.66215)
(1.16661 0.0723497 -1.05958)
(0.133994 0.0920116 -0.486934)
(0.211859 0.115643 -0.4664)
(0.285701 0.128323 -0.418662)
(0.297303 0.0943201 -0.258671)
(0.341998 0.0292602 -0.180716)
(0.420154 -0.0334281 -0.129581)
(0.485674 -0.0391439 -0.161538)
(0.589319 -0.0516365 -0.207389)
(0.741206 -0.0275656 -0.303698)
(1.06686 0.123871 -0.73159)
(1.07776 -0.00194754 -1.15267)
(0.154488 0.11545 -0.49658)
(0.208428 0.0949528 -0.295276)
(0.26355 0.129409 -0.242524)
(0.258671 0.161597 -0.22435)
(0.295831 0.13642 -0.155641)
(0.374614 0.0414991 -0.047477)
(0.471911 0.0103787 -0.0835761)
(0.599046 -0.0116329 -0.106236)
(0.801409 -0.00669529 -0.186943)
(1.02154 0.0698899 -0.904635)
(0.988052 0.0417183 -1.21682)
(0.121169 0.128151 -0.30447)
(0.206812 0.0966763 -0.282432)
(0.335184 0.177239 -0.216939)
(0.236783 0.274721 -0.18381)
(0.234831 0.243774 -0.139948)
(0.335716 0.109376 -0.0446586)
(0.441885 0.0771794 -0.0754119)
(0.581958 0.0562165 -0.095376)
(0.813746 0.0475514 -0.182069)
(1.03219 0.0300627 -0.927446)
(0.954387 0.0111019 -1.24414)
(0.0946707 0.164312 -0.322829)
(0.0825695 0.0883426 -0.239594)
(0.112514 0.362461 -0.196792)
(0.155088 0.308046 -0.183339)
(0.304515 0.156041 -0.0939566)
(0.412366 0.124742 -0.103295)
(0.556727 0.0992271 -0.124631)
(0.784524 0.0788615 -0.213056)
(1.04193 0.0203676 -0.917269)
(0.932502 0.0150366 -1.25088)
(0.078442 0.288406 -0.311826)
(-0.00985399 0.228788 -0.216812)
(0.0550215 0.382078 -0.229062)
(0.113822 0.346254 -0.231492)
(0.281143 0.189256 -0.10774)
(0.397782 0.148743 -0.105592)
(0.547535 0.112901 -0.127941)
(0.775344 0.0724275 -0.220319)
(1.0366 0.0162427 -0.886542)
(0.922017 0.00877065 -1.24995)
(0.0738344 0.431737 -0.30179)
(0.0086066 0.351791 -0.21117)
(0.0528368 0.432507 -0.261706)
(0.113231 0.400469 -0.276339)
(0.232493 0.222001 -0.125023)
(0.374091 0.178874 -0.111913)
(0.523561 0.136576 -0.137597)
(0.745874 0.084694 -0.232753)
(0.997215 0.0190753 -0.891314)
(0.910689 0.0134607 -1.24735)
(0.0737683 0.570275 -0.305631)
(0.00497544 0.488753 -0.213682)
(0.0486741 0.49092 -0.30154)
(0.0829343 0.442723 -0.294108)
(0.226612 0.277223 -0.150115)
(0.349161 0.224206 -0.14028)
(0.488654 0.179871 -0.16654)
(0.699213 0.106975 -0.265145)
(0.955929 0.0245316 -0.876553)
(0.903767 0.019976 -1.23365)
(0.133452 0.618792 -0.328801)
(0.317671 0.487132 -0.321718)
(0.0572029 0.197102 -0.290074)
(0.0203981 0.521774 -0.342303)
(0.0893715 0.480653 -0.338955)
(0.322397 0.421935 -0.295922)
(0.446295 0.371822 -0.307532)
(0.61868 0.308428 -0.346638)
(0.830709 0.190649 -0.471878)
(0.985778 0.0777335 -0.81907)
(0.880278 0.0235609 -1.2189)
(0.104826 0.639514 -0.661712)
(0.110865 0.511563 -0.41742)
(0.0976627 0.456253 -0.397581)
(0.0583326 0.622994 -0.58678)
(0.0926528 0.532726 -0.401707)
(0.290855 0.496927 -0.376634)
(0.412746 0.461011 -0.395056)
(0.555841 0.400522 -0.43735)
(0.721863 0.294291 -0.552225)
(0.847692 0.135596 -0.798656)
(0.836853 0.0781743 -1.20775)
(0.147336 0.662363 -0.718176)
(0.17134 0.637797 -0.743141)
(0.045281 0.66341 -0.753615)
(0.10343 0.750785 -0.724626)
(0.19725 0.585793 -0.486106)
(0.28711 0.582993 -0.501838)
(0.364503 0.55511 -0.539825)
(0.47197 0.49567 -0.579394)
(0.608611 0.375765 -0.650239)
(0.78241 0.233399 -1.12613)
(0.788457 0.088118 -1.21031)
(0.117084 0.713905 -0.801107)
(0.134145 0.700455 -0.819402)
(0.140868 0.702457 -0.813273)
(0.197262 0.778688 -0.796193)
(0.288319 0.727838 -0.795924)
(0.353711 0.687809 -0.830291)
(0.438992 0.620983 -0.889428)
(0.501039 0.525178 -0.950836)
(0.649707 0.385684 -1.05985)
(0.665471 0.235679 -1.17401)
(0.675256 0.0744551 -1.2747)
(0.118815 0.825845 -0.855876)
(0.140161 0.831176 -0.876993)
(0.162042 0.827972 -0.881134)
(0.210151 0.817809 -0.89368)
(0.272194 0.78598 -0.933603)
(0.323986 0.733088 -0.96898)
(0.375027 0.664849 -1.01369)
(0.421117 0.565237 -1.0666)
(0.477791 0.457435 -1.11831)
(0.498516 0.252546 -1.24886)
(0.548253 0.11316 -1.30429)
(0.110664 0.849772 -0.983216)
(0.12933 0.849251 -1.00301)
(0.154033 0.834278 -1.00815)
(0.189259 0.806198 -1.02607)
(0.218472 0.757287 -1.05969)
(0.239341 0.690642 -1.09839)
(0.268556 0.609033 -1.14171)
(0.287673 0.506719 -1.19149)
(0.329256 0.387494 -1.24261)
(0.338766 0.243137 -1.32299)
(0.367907 0.0996752 -1.38531)
(0.105661 0.97462 -1.05495)
(0.115365 0.975485 -1.07697)
(0.127283 0.953178 -1.08578)
(0.141932 0.911323 -1.10302)
(0.155497 0.850306 -1.13011)
(0.167049 0.776107 -1.1605)
(0.180403 0.689496 -1.19604)
(0.190463 0.577158 -1.24145)
(0.209544 0.461545 -1.2882)
(0.214215 0.282351 -1.37183)
(0.24546 0.140717 -1.4308)
(0.136938 0.0919225 -0.518101)
(0.215228 0.0872258 -0.507076)
(0.302193 0.0848361 -0.485868)
(0.390472 0.0745671 -0.459945)
(0.514497 0.070669 -0.456395)
(0.642459 0.0633398 -0.473648)
(0.79003 0.0646539 -0.52104)
(0.900624 0.0596694 -0.597793)
(1.05549 0.072078 -0.692912)
(1.10377 0.0705726 -0.827032)
(1.23939 0.0574864 -0.946983)
(0.143262 0.107978 -0.546483)
(0.230444 0.11094 -0.530143)
(0.32354 0.109516 -0.503016)
(0.418075 0.0992673 -0.477306)
(0.552942 0.0616687 -0.459659)
(0.691058 0.0401507 -0.474356)
(0.842394 0.0270761 -0.525425)
(0.968055 0.0056835 -0.607366)
(1.1198 0.0164472 -0.711073)
(1.14615 0.00190898 -0.888174)
(1.21323 0.071189 -1.03603)
(0.150259 0.0765886 -0.561023)
(0.239295 0.072487 -0.535313)
(0.327982 0.0707508 -0.507736)
(0.39029 0.0430113 -0.4396)
(0.52014 0.0275875 -0.437102)
(0.677184 0.00280712 -0.450161)
(0.827448 -0.0123348 -0.506431)
(0.970178 -0.0286 -0.577109)
(1.11683 0.0105005 -0.717398)
(1.22646 0.048607 -0.871783)
(1.24478 0.0551797 -1.09918)
(0.137803 0.0809893 -0.57306)
(0.228534 0.104419 -0.541426)
(0.302895 0.135544 -0.492062)
(0.363308 0.0998826 -0.441742)
(0.374658 0.0723677 -0.326623)
(0.483915 0.0443116 -0.300954)
(0.595307 0.0282669 -0.331859)
(0.736775 0.0136079 -0.383619)
(0.89236 0.0436264 -0.463346)
(1.16659 0.129175 -0.848566)
(1.14081 0.0711433 -1.07613)
(0.154871 0.0808097 -0.592109)
(0.222223 0.0794648 -0.361008)
(0.278914 0.107266 -0.302786)
(0.310238 0.266809 -0.440886)
(0.352769 0.151799 -0.314614)
(0.446469 0.0995755 -0.29305)
(0.565338 0.0673256 -0.320374)
(0.72024 0.045199 -0.369282)
(0.907368 0.0434836 -0.450675)
(1.15076 0.0465609 -0.913667)
(1.11687 0.0455276 -1.11572)
(0.122963 0.0955897 -0.377737)
(0.21809 0.0735703 -0.349172)
(0.34291 0.174402 -0.278758)
(0.24755 0.274481 -0.273231)
(0.273792 0.228181 -0.2922)
(0.41428 0.166782 -0.288183)
(0.53712 0.117231 -0.317233)
(0.704876 0.0853922 -0.365649)
(0.906077 0.0652 -0.452121)
(1.1407 0.0622103 -0.931145)
(1.07951 0.0338925 -1.1242)
(0.0945425 0.117216 -0.402461)
(0.0850602 0.0469447 -0.295473)
(0.140184 0.326888 -0.268762)
(0.235267 0.316723 -0.457146)
(0.353909 0.220013 -0.3142)
(0.50626 0.156635 -0.326624)
(0.682091 0.115913 -0.375584)
(0.881531 0.0773536 -0.465805)
(1.1214 0.0423868 -0.943907)
(1.05789 0.0261573 -1.13696)
(0.0810816 0.23689 -0.388951)
(0.00253461 0.178874 -0.290726)
(0.0838671 0.325773 -0.302564)
(0.197587 0.372257 -0.498188)
(0.341627 0.26187 -0.331045)
(0.481042 0.19743 -0.341381)
(0.655145 0.150276 -0.387927)
(0.849549 0.0981263 -0.477391)
(1.09243 0.0565401 -0.95226)
(1.0377 0.0237658 -1.14112)
(0.0748153 0.378199 -0.370715)
(0.0095698 0.30776 -0.26555)
(0.0771398 0.356529 -0.330816)
(0.18272 0.465928 -0.542015)
(0.324477 0.311508 -0.341289)
(0.445032 0.24833 -0.34554)
(0.616895 0.193152 -0.388048)
(0.806851 0.124764 -0.472769)
(1.05573 0.0204785 -0.964012)
(1.00719 0.0210123 -1.14842)
(0.0749051 0.512971 -0.369355)
(0.00957383 0.443859 -0.262175)
(0.0898774 0.399714 -0.364581)
(0.239058 0.495951 -0.558853)
(0.452715 0.432042 -0.496176)
(0.577095 0.350212 -0.526333)
(0.769494 0.273927 -0.581468)
(0.910361 0.154181 -0.733387)
(1.04813 0.0554947 -0.979465)
(1.0113 0.0245405 -1.14392)
(0.132491 0.554822 -0.391934)
(0.317751 0.433802 -0.381529)
(0.107609 0.161053 -0.333944)
(0.0772404 0.414971 -0.400883)
(0.189157 0.523845 -0.615101)
(0.399606 0.455373 -0.571934)
(0.540906 0.400709 -0.599287)
(0.706382 0.329558 -0.654834)
(0.847675 0.236375 -0.805995)
(0.976048 0.134736 -0.997336)
(0.959027 0.0427073 -1.15663)
(0.109309 0.554378 -0.756767)
(0.132902 0.438143 -0.488523)
(0.123927 0.371482 -0.487499)
(0.087968 0.515248 -0.719915)
(0.181775 0.547922 -0.685066)
(0.365317 0.50575 -0.650427)
(0.48126 0.4544 -0.684467)
(0.625282 0.392886 -0.741163)
(0.736279 0.279102 -0.876927)
(0.874002 0.233276 -1.0316)
(0.893243 0.0501736 -1.17193)
(0.1514 0.564649 -0.812238)
(0.166958 0.531642 -0.834494)
(0.100066 0.529976 -0.8461)
(0.0792325 0.575594 -0.789565)
(0.191718 0.63681 -0.78371)
(0.328086 0.601876 -0.782958)
(0.439503 0.564142 -0.817157)
(0.534164 0.496699 -0.868924)
(0.699928 0.395711 -0.98085)
(0.746097 0.275709 -1.10418)
(0.756125 0.0767572 -1.2471)
(0.118812 0.60284 -0.895788)
(0.133136 0.580696 -0.915943)
(0.14081 0.584415 -0.912383)
(0.159587 0.611839 -0.8967)
(0.229143 0.642356 -0.899904)
(0.310137 0.611865 -0.915007)
(0.379001 0.570241 -0.948165)
(0.452618 0.494381 -1.00106)
(0.527454 0.402859 -1.05788)
(0.574889 0.229445 -1.19894)
(0.61986 0.0876554 -1.28169)
(0.115841 0.689789 -0.950511)
(0.131334 0.691567 -0.973128)
(0.143504 0.687581 -0.974016)
(0.169037 0.679226 -0.980181)
(0.216955 0.667503 -0.993644)
(0.264155 0.620746 -1.02568)
(0.320102 0.56275 -1.06697)
(0.362551 0.47794 -1.11863)
(0.437063 0.370646 -1.18109)
(0.466305 0.238605 -1.2587)
(0.504181 0.0915506 -1.34043)
(0.107998 0.713836 -1.06326)
(0.120399 0.714036 -1.08414)
(0.137341 0.704111 -1.08886)
(0.157938 0.685961 -1.10025)
(0.1858 0.65871 -1.12235)
(0.212853 0.608538 -1.14875)
(0.240374 0.5494 -1.18258)
(0.264872 0.460505 -1.22606)
(0.295506 0.368123 -1.27255)
(0.310794 0.220177 -1.34713)
(0.33784 0.0983971 -1.40699)
(0.103948 0.816954 -1.13061)
(0.11085 0.819575 -1.15367)
(0.118529 0.80434 -1.16011)
(0.128323 0.775014 -1.17292)
(0.140201 0.735185 -1.19053)
(0.150201 0.674218 -1.21602)
(0.164764 0.604347 -1.2465)
(0.173787 0.50583 -1.28713)
(0.194515 0.403291 -1.33191)
(0.200262 0.249678 -1.39928)
(0.219393 0.11632 -1.46036)
(0.132099 0.0900748 -0.598015)
(0.201631 0.0887996 -0.593459)
(0.27768 0.0843708 -0.574117)
(0.3536 0.0868102 -0.56099)
(0.452124 0.0767567 -0.555843)
(0.546148 0.0718806 -0.574433)
(0.669893 0.065295 -0.615199)
(0.758464 0.0600377 -0.682956)
(0.896839 0.0556024 -0.768113)
(0.952813 0.0521978 -0.879974)
(1.09759 0.0499675 -0.978603)
(0.141225 0.10284 -0.628977)
(0.216264 0.105514 -0.616995)
(0.3064 0.110763 -0.59349)
(0.379932 0.106253 -0.572329)
(0.476589 0.102258 -0.570886)
(0.576475 0.0894264 -0.592094)
(0.701476 0.082628 -0.642341)
(0.793838 0.0673949 -0.71902)
(0.932642 0.069954 -0.823783)
(0.994383 0.0530835 -0.95558)